# vtk DataFile Version 2.0
VTK from Matlab
ASCII
DATASET STRUCTURED_POINTS
DIMENSIONS 50 35 10
SPACING 2 2 2
ORIGIN 0 0 0
POINT_DATA 17500
SCALARS Conductivity float 1
LOOKUP_TABLE default
-18.42 -18.42 -18.42 -18.42 -18.42 -18.42 -18.42 -18.42 -18.42 -18.42 -18.42 -18.42 -18.42 -18.42 -18.42 -18.42 -18.42 -18.42 -18.42 -18.42 -18.42 -18.42 -18.42 -18.42 -18.42 -18.42 -18.42 -18.42 -18.42 -18.42 -18.42 -18.42 -18.42 -18.42 -18.42 -18.42 -18.42 -18.42 -18.42 -18.42 -18.42 -18.42 -18.42 -18.42 -18.42 -18.42 -18.42 -18.42 -18.42 -18.42 -18.42 -18.42 -18.42 -18.42 -18.42 -18.42 -18.42 -18.42 -18.42 -18.42 -18.42 -18.42 -18.42 -18.42 -18.42 -18.42 -18.42 -18.42 -18.42 -18.42 -18.42 -18.42 -18.42 -18.42 -18.42 -18.42 -18.42 -18.42 -18.42 -18.42 -18.42 -18.42 -18.42 -18.42 -18.42 -18.42 -18.42 -18.42 -18.42 -18.42 -18.42 -18.42 -18.42 -18.42 -18.42 -18.42 -18.42 -18.42 -18.42 -18.42 -18.42 -18.42 -18.42 -18.42 -18.42 -18.42 -18.42 -18.42 -18.42 -18.42 -18.42 -18.42 -18.42 -18.42 -18.42 -18.42 -18.42 -18.42 -18.42 -18.42 -18.42 -18.42 -18.42 -18.42 -18.42 -18.42 -18.42 -18.42 -18.42 -18.42 -18.42 -18.42 -18.42 -18.42 -18.42 -18.42 -18.42 -18.42 -18.42 -18.42 -18.42 -18.42 -18.42 -18.42 -18.42 -18.42 -18.42 -18.42 -18.42 -18.42 -18.42 -18.42 -18.42 -18.42 -18.42 -18.42 -18.42 -18.42 -18.42 -18.42 -18.42 -18.42 -18.42 -18.42 -18.42 -18.42 -18.42 -18.42 -18.42 -18.42 -18.42 -18.42 -18.42 -18.42 -18.42 -18.42 -18.42 -18.42 -18.42 -18.42 -18.42 -18.42 -18.42 -18.42 -18.42 -18.42 -18.42 -18.42 -18.42 -18.42 -18.42 -18.42 -18.42 -18.42 -18.42 -18.42 -18.42 -18.42 -18.42 -18.42 -18.42 -18.42 -18.42 -18.42 -18.42 -18.42 -18.42 -18.42 -18.42 -18.42 -18.42 -18.42 -18.42 -18.42 -18.42 -18.42 -18.42 -18.42 -18.42 -18.42 -18.42 -18.42 -18.42 -18.42 -18.42 -18.42 -18.42 -18.42 -18.42 -18.42 -18.42 -18.42 -18.42 -18.42 -18.42 -18.42 -18.42 -18.42 -18.42 -18.42 -18.42 -18.42 -18.42 -18.42 -18.42 -18.42 -18.42 -18.42 -18.42 -18.42 -18.42 -18.42 -18.42 -18.42 -18.42 -18.42 -18.42 -18.42 -18.42 -18.42 -18.42 -18.42 -18.42 -18.42 -18.42 -18.42 -18.42 -18.42 -18.42 -18.42 -18.42 -18.42 -18.42 -18.42 -18.42 -18.42 -18.42 -18.42 -18.42 -18.42 -18.42 -18.42 -18.42 -18.42 -18.42 -18.42 -18.42 -18.42 -18.42 -18.42 -18.42 -18.42 -18.42 -18.42 -18.42 -18.42 -18.42 -18.42 -18.42 -18.42 -18.42 -18.42 -18.42 -18.42 -18.42 -18.42 -18.42 -18.42 -18.42 -18.42 -18.42 -18.42 -18.42 -18.42 -18.42 -18.42 -18.42 -18.42 -18.42 -18.42 -18.42 -18.42 -18.42 -18.42 -18.42 -18.42 -18.42 -18.42 -18.42 -18.42 -18.42 -18.42 -18.42 -18.42 -18.42 -18.42 -18.42 -18.42 -18.42 -18.42 -18.42 -18.42 -18.42 -18.42 -18.42 -18.42 -18.42 -18.42 -18.42 -18.42 -18.42 -18.42 -18.42 -18.42 -18.42 -18.42 -18.42 -18.42 -18.42 -18.42 -18.42 -18.42 -18.42 -18.42 -18.42 -18.42 -18.42 -18.42 -18.42 -18.42 -18.42 -18.42 -18.42 -18.42 -18.42 -18.42 -18.42 -18.42 -18.42 -18.42 -18.42 -18.42 -18.42 -18.42 -18.42 -18.42 -18.42 -18.42 -18.42 -18.42 -18.42 -18.42 -18.42 -18.42 -18.42 -18.42 -18.42 -18.42 -18.42 -18.42 -18.42 -18.42 -18.42 -18.42 -18.42 -18.42 -18.42 -18.42 -18.42 -18.42 -18.42 -18.42 -18.42 -18.42 -18.42 -18.42 -18.42 -18.42 -18.42 -18.42 -18.42 -18.42 -18.42 -18.42 -18.42 -18.42 -18.42 -18.42 -18.42 -18.42 -18.42 -18.42 -18.42 -18.42 -18.42 -18.42 -18.42 -18.42 -18.42 -18.42 -18.42 -18.42 -18.42 -18.42 -18.42 -18.42 -18.42 -18.42 -18.42 -18.42 -18.42 -18.42 -18.42 -18.42 -18.42 -18.42 -18.42 -18.42 -18.42 -18.42 -18.42 -18.42 -18.42 -18.42 -18.42 -18.42 -18.42 -18.42 -18.42 -18.42 -18.42 -18.42 -18.42 -18.42 -18.42 -18.42 -18.42 -18.42 -18.42 -18.42 -18.42 -18.42 -18.42 -18.42 -18.42 -18.42 -18.42 -18.42 -18.42 -18.42 -18.42 -18.42 -18.42 -18.42 -18.42 -18.42 -18.42 -18.42 -18.42 -18.42 -18.42 -18.42 -18.42 -18.42 -18.42 -18.42 -18.42 -18.42 -18.42 -18.42 -18.42 -18.42 -18.42 -18.42 -18.42 -18.42 -18.42 -18.42 -18.42 -18.42 -18.42 -18.42 -18.42 -18.42 -18.42 -18.42 -18.42 -18.42 -18.42 -18.42 -18.42 -18.42 -18.42 -18.42 -18.42 -18.42 -18.42 -18.42 -18.42 -18.42 -18.42 -18.42 -18.42 -18.42 -18.42 -18.42 -18.42 -18.42 -18.42 -18.42 -18.42 -18.42 -18.42 -18.42 -18.42 -18.42 -18.42 -18.42 -18.42 -18.42 -18.42 -18.42 -18.42 -18.42 -18.42 -18.42 -18.42 -18.42 -18.42 -18.42 -18.42 -18.42 -18.42 -18.42 -18.42 -18.42 -18.42 -18.42 -18.42 -18.42 -18.42 -18.42 -18.42 -18.42 -18.42 -18.42 -18.42 -18.42 -18.42 -18.42 -18.42 -18.42 -18.42 -18.42 -18.42 -18.42 -18.42 -18.42 -18.42 -18.42 -18.42 -18.42 -18.42 -18.42 -18.42 -18.42 -18.42 -18.42 -18.42 -18.42 -18.42 -18.42 -18.42 -18.42 -18.42 -18.42 -18.42 -18.42 -18.42 -18.42 -18.42 -18.42 -18.42 -18.42 -18.42 -18.42 -18.42 -18.42 -18.42 -18.42 -18.42 -18.42 -18.42 -18.42 -18.42 -18.42 -18.42 -18.42 -18.42 -18.42 -18.42 -18.42 -18.42 -18.42 -18.42 -18.42 -18.42 -18.42 -18.42 -18.42 -18.42 -18.42 -18.42 -18.42 -18.42 -18.42 -18.42 -18.42 -18.42 -18.42 -18.42 -18.42 -18.42 -18.42 -18.42 -18.42 -18.42 -18.42 -18.42 -18.42 -18.42 -18.42 -18.42 -18.42 -18.42 -18.42 -18.42 -18.42 -18.42 -18.42 -18.42 -18.42 -18.42 -18.42 -18.42 -18.42 -18.42 -18.42 -18.42 -18.42 -18.42 -18.42 -18.42 -18.42 -18.42 -18.42 -18.42 -18.42 -18.42 -18.42 -18.42 -18.42 -18.42 -18.42 -18.42 -18.42 -18.42 -18.42 -18.42 -18.42 -18.42 -18.42 -18.42 -18.42 -18.42 -18.42 -18.42 -18.42 -18.42 -18.42 -18.42 -18.42 -18.42 -18.42 -18.42 -18.42 -18.42 -18.42 -18.42 -18.42 -18.42 -18.42 -18.42 -18.42 -18.42 -18.42 -18.42 -18.42 -18.42 -18.42 -18.42 -18.42 -18.42 -18.42 -18.42 -18.42 -18.42 -18.42 -18.42 -18.42 -18.42 -18.42 -18.42 -18.42 -18.42 -18.42 -18.42 -18.42 -18.42 -18.42 -18.42 -18.42 -18.42 -18.42 -18.42 -18.42 -18.42 -18.42 -18.42 -18.42 -18.42 -18.42 -18.42 -18.42 -18.42 -18.42 -18.42 -18.42 -18.42 -18.42 -18.42 -18.42 -18.42 -18.42 -18.42 -18.42 -18.42 -18.42 -18.42 -18.42 -18.42 -18.42 -18.42 -18.42 -18.42 -18.42 -18.42 -18.42 -18.42 -18.42 -18.42 -18.42 -18.42 -18.42 -18.42 -18.42 -18.42 -18.42 -18.42 -18.42 -18.42 -18.42 -18.42 -18.42 -18.42 -18.42 -18.42 -18.42 -18.42 -18.42 -18.42 -18.42 -18.42 -18.42 -18.42 -18.42 -18.42 -18.42 -18.42 -18.42 -18.42 -18.42 -18.42 -18.42 -18.42 -18.42 -18.42 -18.42 -18.42 -18.42 -18.42 -18.42 -18.42 -18.42 -18.42 -18.42 -18.42 -18.42 -18.42 -18.42 -18.42 -18.42 -18.42 -18.42 -18.42 -18.42 -18.42 -18.42 -18.42 -18.42 -18.42 -18.42 -18.42 -18.42 -18.42 -18.42 -18.42 -18.42 -18.42 -18.42 -18.42 -18.42 -18.42 -18.42 -18.42 -18.42 -18.42 -18.42 -18.42 -18.42 -18.42 -18.42 -18.42 -18.42 -18.42 -18.42 -18.42 -18.42 -18.42 -18.42 -18.42 -18.42 -18.42 -18.42 -18.42 -18.42 -18.42 -18.42 -18.42 -18.42 -18.42 -18.42 -18.42 -18.42 -18.42 -18.42 -18.42 -18.42 -18.42 -18.42 -18.42 -18.42 -18.42 -18.42 -18.42 -18.42 -18.42 -18.42 -18.42 -18.42 -18.42 -18.42 -18.42 -18.42 -18.42 -18.42 -18.42 -18.42 -18.42 -18.42 -18.42 -18.42 -18.42 -18.42 -18.42 -18.42 -18.42 -18.42 -18.42 -18.42 -18.42 -18.42 -18.42 -18.42 -18.42 -18.42 -18.42 -18.42 -18.42 -18.42 -18.42 -18.42 -18.42 -18.42 -18.42 -18.42 -18.42 -18.42 -18.42 -18.42 -18.42 -18.42 -18.42 -18.42 -18.42 -18.42 -18.42 -18.42 -18.42 -18.42 -18.42 -18.42 -18.42 -18.42 -18.42 -18.42 -18.42 -18.42 -18.42 -18.42 -18.42 -18.42 -18.42 -18.42 -18.42 -18.42 -18.42 -18.42 -18.42 -18.42 -18.42 -18.42 -18.42 -18.42 -18.42 -18.42 -18.42 -18.42 -18.42 -18.42 -18.42 -18.42 -18.42 -18.42 -18.42 -18.42 -18.42 -18.42 -18.42 -18.42 -18.42 -18.42 -18.42 -18.42 -18.42 -18.42 -18.42 -18.42 -18.42 -18.42 -18.42 -18.42 -18.42 -18.42 -18.42 -18.42 -18.42 -18.42 -18.42 -18.42 -18.42 -18.42 -18.42 -18.42 -18.42 -18.42 -18.42 -18.42 -18.42 -18.42 -18.42 -18.42 -18.42 -18.42 -18.42 -18.42 -18.42 -18.42 -18.42 -18.42 -18.42 -18.42 -18.42 -18.42 -18.42 -18.42 -18.42 -18.42 -18.42 -18.42 -18.42 -18.42 -18.42 -18.42 -18.42 -18.42 -18.42 -18.42 -18.42 -18.42 -18.42 -18.42 -18.42 -18.42 -18.42 -18.42 -18.42 -18.42 -18.42 -18.42 -18.42 -18.42 -18.42 -18.42 -18.42 -18.42 -18.42 -18.42 -18.42 -18.42 -18.42 -18.42 -18.42 -18.42 -18.42 -18.42 -18.42 -18.42 -18.42 -18.42 -18.42 -18.42 -18.42 -18.42 -18.42 -18.42 -18.42 -18.42 -18.42 -18.42 -18.42 -18.42 -18.42 -18.42 -18.42 -18.42 -18.42 -18.42 -18.42 -18.42 -18.42 -18.42 -18.42 -18.42 -18.42 -18.42 -18.42 -18.42 -18.42 -18.42 -18.42 -18.42 -18.42 -18.42 -18.42 -18.42 -18.42 -18.42 -18.42 -18.42 -18.42 -18.42 -18.42 -18.42 -18.42 -18.42 -18.42 -18.42 -18.42 -18.42 -18.42 -18.42 -18.42 -18.42 -18.42 -18.42 -18.42 -18.42 -18.42 -18.42 -18.42 -18.42 -18.42 -18.42 -18.42 -18.42 -18.42 -18.42 -18.42 -18.42 -18.42 -18.42 -18.42 -18.42 -18.42 -18.42 -18.42 -18.42 -18.42 -18.42 -18.42 -18.42 -18.42 -18.42 -18.42 -18.42 -18.42 -18.42 -18.42 -18.42 -18.42 -18.42 -18.42 -18.42 -18.42 -18.42 -18.42 -18.42 -18.42 -18.42 -18.42 -18.42 -18.42 -18.42 -18.42 -18.42 -18.42 -18.42 -18.42 -18.42 -18.42 -18.42 -18.42 -18.42 -18.42 -18.42 -18.42 -18.42 -18.42 -18.42 -18.42 -18.42 -18.42 -18.42 -18.42 -18.42 -18.42 -18.42 -18.42 -18.42 -18.42 -18.42 -18.42 -18.42 -18.42 -18.42 -18.42 -18.42 -18.42 -18.42 -18.42 -18.42 -18.42 -18.42 -18.42 -18.42 -18.42 -18.42 -18.42 -18.42 -18.42 -18.42 -18.42 -18.42 -18.42 -18.42 -18.42 -18.42 -18.42 -18.42 -18.42 -18.42 -18.42 -18.42 -18.42 -18.42 -18.42 -18.42 -18.42 -18.42 -18.42 -18.42 -18.42 -18.42 -18.42 -18.42 -18.42 -18.42 -18.42 -18.42 -18.42 -18.42 -18.42 -18.42 -18.42 -18.42 -18.42 -18.42 -18.42 -18.42 -18.42 -18.42 -18.42 -18.42 -18.42 -18.42 -18.42 -18.42 -18.42 -18.42 -18.42 -18.42 -18.42 -18.42 -18.42 -18.42 -18.42 -18.42 -18.42 -18.42 -18.42 -18.42 -18.42 -18.42 -18.42 -18.42 -18.42 -18.42 -18.42 -18.42 -18.42 -18.42 -18.42 -18.42 -18.42 -18.42 -18.42 -18.42 -18.42 -18.42 -18.42 -18.42 -18.42 -18.42 -18.42 -18.42 -18.42 -18.42 -18.42 -18.42 -18.42 -18.42 -18.42 -18.42 -18.42 -18.42 -18.42 -18.42 -18.42 -18.42 -18.42 -18.42 -18.42 -18.42 -18.42 -18.42 -18.42 -18.42 -18.42 -18.42 -18.42 -18.42 -18.42 -18.42 -18.42 -18.42 -18.42 -18.42 -18.42 -18.42 -18.42 -18.42 -18.42 -18.42 -18.42 -18.42 -18.42 -18.42 -18.42 -18.42 -18.42 -18.42 -18.42 -18.42 -18.42 -18.42 -18.42 -18.42 -18.42 -18.42 -18.42 -18.42 -18.42 -18.42 -18.42 -18.42 -18.42 -18.42 -18.42 -18.42 -18.42 -18.42 -18.42 -18.42 -18.42 -18.42 -18.42 -18.42 -18.42 -18.42 -18.42 -18.42 -18.42 -18.42 -18.42 -18.42 -18.42 -18.42 -18.42 -18.42 -18.42 -18.42 -18.42 -18.42 -18.42 -18.42 -18.42 -18.42 -18.42 -18.42 -18.42 -18.42 -18.42 -18.42 -18.42 -18.42 -18.42 -18.42 -18.42 -18.42 -18.42 -18.42 -18.42 -18.42 -18.42 -18.42 -18.42 -18.42 -18.42 -18.42 -18.42 -18.42 -18.42 -18.42 -18.42 -18.42 -18.42 -18.42 -18.42 -18.42 -18.42 -18.42 -18.42 -18.42 -18.42 -18.42 -18.42 -18.42 -18.42 -18.42 -18.42 -18.42 -18.42 -18.42 -18.42 -18.42 -18.42 -18.42 -18.42 -18.42 -18.42 -18.42 -18.42 -18.42 -18.42 -18.42 -18.42 -18.42 -18.42 -18.42 -18.42 -18.42 -18.42 -18.42 -18.42 -18.42 -18.42 -18.42 -18.42 -18.42 -18.42 -18.42 -18.42 -18.42 -18.42 -18.42 -18.42 -18.42 -18.42 -18.42 -18.42 -18.42 -18.42 -18.42 -18.42 -18.42 -18.42 -18.42 -18.42 -18.42 -18.42 -18.42 -18.42 -18.42 -18.42 -18.42 -18.42 -18.42 -18.42 -18.42 -18.42 -18.42 -18.42 -18.42 -18.42 -18.42 -18.42 -18.42 -18.42 -18.42 -18.42 -18.42 -18.42 -18.42 -18.42 -18.42 -18.42 -18.42 -18.42 -18.42 -18.42 -18.42 -18.42 -18.42 -18.42 -18.42 -18.42 -18.42 -18.42 -18.42 -18.42 -18.42 -18.42 -18.42 -18.42 -18.42 -18.42 -18.42 -18.42 -18.42 -18.42 -18.42 -18.42 -18.42 -18.42 -18.42 -18.42 -18.42 -18.42 -18.42 -18.42 -18.42 -18.42 -18.42 -18.42 -18.42 -18.42 -18.42 -18.42 -18.42 -18.42 -18.42 -18.42 -18.42 -18.42 -18.42 -18.42 -18.42 -18.42 -18.42 -18.42 -18.42 -18.42 -18.42 -18.42 -18.42 -18.42 -18.42 -18.42 -18.42 -18.42 -18.42 -18.42 -18.42 -18.42 -18.42 -18.42 -18.42 -18.42 -18.42 -18.42 -18.42 -18.42 -18.42 -18.42 -18.42 -18.42 -18.42 -18.42 -18.42 -18.42 -18.42 -18.42 -18.42 -18.42 -18.42 -18.42 -18.42 -18.42 -18.42 -18.42 -18.42 -18.42 -18.42 -18.42 -18.42 -18.42 -18.42 -18.42 -18.42 -18.42 -18.42 -18.42 -18.42 -18.42 -18.42 -18.42 -18.42 -18.42 -18.42 -18.42 -18.42 -18.42 -18.42 -18.42 -18.42 -18.42 -18.42 -18.42 -18.42 -18.42 -18.42 -18.42 -18.42 -18.42 -18.42 -18.42 -18.42 -18.42 -18.42 -18.42 -18.42 -18.42 -18.42 -18.42 -18.42 -18.42 -18.42 -18.42 -18.42 -18.42 -18.42 -18.42 -18.42 -18.42 -18.42 -18.42 -18.42 -18.42 -18.42 -18.42 -18.42 -18.42 -18.42 -18.42 -18.42 -18.42 -18.42 -18.42 -18.42 -18.42 -18.42 -18.42 -18.42 -18.42 -18.42 -18.42 -18.42 -18.42 -18.42 -18.42 -18.42 -18.42 -18.42 -18.42 -18.42 -18.42 -18.42 -18.42 -18.42 -18.42 -18.42 -18.42 -18.42 -18.42 -18.42 -18.42 -18.42 -18.42 -18.42 -18.42 -18.42 -18.42 -18.42 -18.42 -18.42 -18.42 -18.42 -18.42 -18.42 -18.42 -18.42 -18.42 -18.42 -18.42 -18.42 -18.42 -18.42 -18.42 -18.42 -18.42 -18.42 -18.42 -18.42 -18.42 -18.42 -18.42 -18.42 -18.42 -18.42 -18.42 -18.42 -18.42 -18.42 -18.42 -18.42 -18.42 -18.42 -18.42 -18.42 -18.42 -18.42 -18.42 -18.42 -18.42 -18.42 -18.42 -18.42 -18.42 -18.42 -18.42 -18.42 -18.42 -18.42 -18.42 -18.42 -18.42 -18.42 -18.42 -18.42 -18.42 -18.42 -18.42 -18.42 -18.42 -18.42 -18.42 -18.42 -18.42 -18.42 -18.42 -18.42 -18.42 -18.42 -18.42 -18.42 -18.42 -18.42 -18.42 -18.42 -18.42 -18.42 -18.42 -18.42 -18.42 -18.42 -18.42 -18.42 -18.42 -18.42 -18.42 -18.42 -18.42 -18.42 -18.42 -18.42 -18.42 -18.42 -18.42 -18.42 -18.42 -18.42 -18.42 -18.42 -18.42 -18.42 -18.42 -18.42 -18.42 -18.42 -18.42 -18.42 -18.42 -18.42 -18.42 -18.42 -18.42 -18.42 -18.42 -18.42 -18.42 -18.42 -18.42 -18.42 -18.42 -18.42 -18.42 -18.42 -18.42 -18.42 -18.42 -18.42 -18.42 -18.42 -18.42 -18.42 -18.42 -18.42 -18.42 -18.42 -18.42 -18.42 -18.42 -18.42 -18.42 -18.42 -18.42 -18.42 -18.42 -18.42 -18.42 -18.42 -18.42 -18.42 -18.42 -18.42 -18.42 -18.42 -18.42 -18.42 -18.42 -18.42 -18.42 -18.42 -18.42 -18.42 -18.42 -18.42 -18.42 -18.42 -18.42 -18.42 -18.42 -18.42 -18.42 -18.42 -18.42 -18.42 -18.42 -18.42 -18.42 -18.42 -18.42 -18.42 -18.42 -18.42 -18.42 -18.42 -18.42 -18.42 -18.42 -18.42 -18.42 -18.42 -18.42 -18.42 -18.42 -18.42 -18.42 -18.42 -18.42 -18.42 -18.42 -18.42 -18.42 -18.42 -18.42 -18.42 -18.42 -18.42 -18.42 -18.42 -18.42 -18.42 -18.42 -18.42 -18.42 -18.42 -18.42 -18.42 -18.42 -18.42 -18.42 -18.42 -18.42 -18.42 -18.42 -18.42 -18.42 -18.42 -18.42 -18.42 -18.42 -18.42 -18.42 -18.42 -18.42 -18.42 -18.42 -18.42 -18.42 -18.42 -18.42 -18.42 -18.42 -18.42 -18.42 -18.42 -18.42 -18.42 -18.42 -18.42 -18.42 -18.42 -18.42 -18.42 -18.42 -18.42 -18.42 -18.42 -18.42 -18.42 -18.42 -18.42 -18.42 -18.42 -18.42 -18.42 -18.42 -18.42 -18.42 -18.42 -18.42 -18.42 -18.42 -18.42 -18.42 -18.42 -18.42 -18.42 -18.42 -18.42 -18.42 -18.42 -18.42 -18.42 -18.42 -18.42 -18.42 -18.42 -18.42 -18.42 -18.42 -18.42 -18.42 -18.42 -18.42 -18.42 -18.42 -18.42 -18.42 -18.42 -18.42 -18.42 -18.42 -18.42 -18.42 -18.42 -18.42 -18.42 -18.42 -18.42 -18.42 -18.42 -18.42 -18.42 -18.42 -18.42 -18.42 -18.42 -18.42 -18.42 -18.42 -18.42 -18.42 -18.42 -18.42 -18.42 -18.42 -18.42 -18.42 -18.42 -18.42 -18.42 -18.42 -18.42 -18.42 -18.42 -18.42 -18.42 -18.42 -18.42 -18.42 -18.42 -18.42 -18.42 -18.42 -18.42 -18.42 -18.42 -18.42 -18.42 -18.42 -18.42 -18.42 -18.42 -18.42 -18.42 -18.42 -18.42 -18.42 -18.42 -18.42 -18.42 -18.42 -18.42 -18.42 -18.42 -18.42 -18.42 -18.42 -18.42 -18.42 -18.42 -18.42 -18.42 -18.42 -18.42 -18.42 -18.42 -18.42 -18.42 -18.42 -18.42 -18.42 -18.42 -18.42 -18.42 -18.42 -18.42 -18.42 -18.42 -18.42 -18.42 -18.42 -18.42 -18.42 -18.42 -18.42 -18.42 -18.42 -18.42 -18.42 -18.42 -18.42 -18.42 -18.42 -18.42 -18.42 -18.42 -18.42 -18.42 -18.42 -18.42 -18.42 -18.42 -18.42 -18.42 -18.42 -18.42 -18.42 -18.42 -18.42 -18.42 -18.42 -18.42 -18.42 -18.42 -18.42 -18.42 -18.42 -18.42 -18.42 -18.42 -18.42 -18.42 -18.42 -18.42 -18.42 -18.42 -18.42 -18.42 -18.42 -18.42 -18.42 -18.42 -18.42 -18.42 -18.42 -18.42 -18.42 -18.42 -18.42 -18.42 -18.42 -18.42 -18.42 -18.42 -18.42 -18.42 -18.42 -18.42 -18.42 -18.42 -18.42 -18.42 -18.42 -18.42 -18.42 -18.42 -18.42 -18.42 -18.42 -18.42 -18.42 -18.42 -18.42 -18.42 -18.42 -18.42 -18.42 -18.42 -18.42 -18.42 -18.42 -18.42 -18.42 -18.42 -18.42 -18.42 -18.42 -18.42 -18.42 -18.42 -18.42 -18.42 -18.42 -18.42 -18.42 -18.42 -18.42 -18.42 -18.42 -18.42 -18.42 -18.42 -18.42 -18.42 -18.42 -18.42 -18.42 -18.42 -18.42 -18.42 -18.42 -18.42 -18.42 -18.42 -18.42 -18.42 -18.42 -18.42 -18.42 -18.42 -18.42 -18.42 -18.42 -18.42 -18.42 -18.42 -18.42 -18.42 -18.42 -18.42 -18.42 -18.42 -18.42 -18.42 -18.42 -18.42 -18.42 -18.42 -18.42 -18.42 -18.42 -18.42 -18.42 -18.42 -18.42 -18.42 -18.42 -18.42 -18.42 -18.42 -18.42 -18.42 -18.42 -18.42 -18.42 -18.42 -18.42 -18.42 -18.42 -18.42 -18.42 -18.42 -18.42 -18.42 -18.42 -18.42 -18.42 -18.42 -18.42 -18.42 -18.42 -18.42 -18.42 -18.42 -18.42 -18.42 -18.42 -18.42 -18.42 -18.42 -18.42 -18.42 -18.42 -18.42 -18.42 -18.42 -18.42 -18.42 -18.42 -18.42 -18.42 -18.42 -18.42 -18.42 -18.42 -18.42 -18.42 -18.42 -18.42 -18.42 -18.42 -18.42 -18.42 -18.42 -18.42 -18.42 -18.42 -18.42 -18.42 -18.42 -18.42 -18.42 -18.42 -18.42 -18.42 -18.42 -18.42 -18.42 -18.42 -18.42 -18.42 -18.42 -18.42 -18.42 -18.42 -18.42 -18.42 -18.42 -18.42 -18.42 -18.42 -18.42 -18.42 -18.42 -18.42 -18.42 -18.42 -18.42 -18.42 -18.42 -18.42 -18.42 -18.42 -18.42 -18.42 -18.42 -18.42 -18.42 -18.42 -18.42 -18.42 -18.42 -18.42 -18.42 -18.42 -18.42 -18.42 -18.42 -18.42 -18.42 -18.42 -18.42 -18.42 -18.42 -18.42 -18.42 -18.42 -18.42 -18.42 -18.42 -18.42 -18.42 -18.42 -18.42 -18.42 -18.42 -18.42 -18.42 -18.42 -18.42 -18.42 -18.42 -18.42 -18.42 -18.42 -18.42 -18.42 -18.42 -18.42 -18.42 -18.42 -18.42 -18.42 -18.42 -18.42 -18.42 -18.42 -18.42 -18.42 -18.42 -18.42 -18.42 -18.42 -18.42 -18.42 -18.42 -18.42 -18.42 -18.42 -18.42 -18.42 -18.42 -18.42 -18.42 -18.42 -18.42 -18.42 -18.42 -18.42 -18.42 -18.42 -18.42 -18.42 -18.42 -18.42 -18.42 -18.42 -18.42 -18.42 -18.42 -18.42 -18.42 -18.42 -18.42 -18.42 -18.42 -18.42 -18.42 -18.42 -18.42 -18.42 -18.42 -18.42 -18.42 -18.42 -18.42 -18.42 -18.42 -18.42 -18.42 -18.42 -18.42 -18.42 -18.42 -18.42 -18.42 -18.42 -18.42 -18.42 -18.42 -18.42 -18.42 -18.42 -18.42 -18.42 -18.42 -18.42 -18.42 -18.42 -18.42 -18.42 -18.42 -18.42 -18.42 -18.42 -18.42 -18.42 -18.42 -18.42 -18.42 -18.42 -18.42 -18.42 -18.42 -18.42 -18.42 -18.42 -18.42 -18.42 -18.42 -18.42 -18.42 -18.42 -18.42 -18.42 -18.42 -18.42 -18.42 -18.42 -18.42 -18.42 -18.42 -18.42 -18.42 -18.42 -18.42 -18.42 -18.42 -18.42 -18.42 -18.42 -18.42 -18.42 -18.42 -18.42 -18.42 -18.42 -18.42 -18.42 -18.42 -18.42 -18.42 -18.42 -18.42 -18.42 -18.42 -18.42 -18.42 -18.42 -18.42 -18.42 -18.42 -18.42 -18.42 -18.42 -18.42 -18.42 -18.42 -18.42 -18.42 -18.42 -18.42 -18.42 -18.42 -18.42 -18.42 -18.42 -18.42 -18.42 -18.42 -18.42 -18.42 -18.42 -18.42 -18.42 -18.42 -18.42 -18.42 -18.42 -18.42 -18.42 -18.42 -18.42 -18.42 -18.42 -18.42 -18.42 -18.42 -18.42 -18.42 -18.42 -18.42 -18.42 -18.42 -18.42 -18.42 -18.42 -18.42 -18.42 -18.42 -18.42 -18.42 -18.42 -18.42 -18.42 -18.42 -18.42 -18.42 -18.42 -18.42 -18.42 -18.42 -18.42 -18.42 -18.42 -18.42 -18.42 -18.42 -18.42 -18.42 -18.42 -18.42 -18.42 -18.42 -18.42 -18.42 -18.42 -18.42 -18.42 -18.42 -18.42 -18.42 -18.42 -18.42 -18.42 -18.42 -18.42 -18.42 -18.42 -18.42 -18.42 -18.42 -18.42 -18.42 -18.42 -18.42 -18.42 -18.42 -18.42 -18.42 -18.42 -18.42 -18.42 -18.42 -18.42 -18.42 -18.42 -18.42 -18.42 -18.42 -18.42 -18.42 -18.42 -18.42 -18.42 -18.42 -18.42 -18.42 -18.42 -18.42 -18.42 -18.42 -18.42 -18.42 -18.42 -18.42 -18.42 -18.42 -18.42 -18.42 -18.42 -18.42 -18.42 -18.42 -18.42 -18.42 -18.42 -18.42 -18.42 -18.42 -18.42 -18.42 -18.42 -18.42 -18.42 -18.42 -18.42 -18.42 -18.42 -18.42 -18.42 -18.42 -18.42 -18.42 -18.42 -18.42 -18.42 -18.42 -18.42 -18.42 -18.42 -18.42 -18.42 -18.42 -18.42 -18.42 -18.42 -18.42 -18.42 -18.42 -18.42 -18.42 -18.42 -18.42 -18.42 -18.42 -18.42 -18.42 -18.42 -18.42 -18.42 -18.42 -18.42 -18.42 -18.42 -18.42 -18.42 -18.42 -18.42 -18.42 -18.42 -18.42 -18.42 -18.42 -18.42 -18.42 -18.42 -18.42 -18.42 -18.42 -18.42 -18.42 -18.42 -18.42 -18.42 -18.42 -18.42 -18.42 -18.42 -18.42 -18.42 -18.42 -18.42 -18.42 -18.42 -18.42 -18.42 -18.42 -18.42 -18.42 -18.42 -18.42 -18.42 -18.42 -18.42 -18.42 -18.42 -18.42 -18.42 -18.42 -18.42 -18.42 -18.42 -18.42 -18.42 -18.42 -18.42 -18.42 -18.42 -18.42 -18.42 -18.42 -18.42 -18.42 -18.42 -18.42 -18.42 -18.42 -18.42 -18.42 -18.42 -18.42 -18.42 -18.42 -18.42 -18.42 -18.42 -18.42 -18.42 -18.42 -18.42 -18.42 -18.42 -18.42 -18.42 -18.42 -18.42 -18.42 -18.42 -18.42 -18.42 -18.42 -18.42 -18.42 -18.42 -18.42 -18.42 -18.42 -18.42 -18.42 -18.42 -18.42 -18.42 -18.42 -18.42 -18.42 -18.42 -18.42 -18.42 -18.42 -18.42 -18.42 -18.42 -18.42 -18.42 -18.42 -18.42 -18.42 -18.42 -18.42 -18.42 -18.42 -18.42 -18.42 -18.42 -18.42 -18.42 -18.42 -18.42 -18.42 -18.42 -18.42 -18.42 -18.42 -18.42 -18.42 -18.42 -18.42 -18.42 -18.42 -18.42 -18.42 -18.42 -18.42 -18.42 -18.42 -18.42 -18.42 -18.42 -18.42 -18.42 -18.42 -18.42 -18.42 -18.42 -18.42 -18.42 -18.42 -18.42 -18.42 -18.42 -18.42 -18.42 -18.42 -18.42 -18.42 -18.42 -18.42 -18.42 -18.42 -18.42 -18.42 -18.42 -18.42 -18.42 -18.42 -18.42 -18.42 -18.42 -18.42 -18.42 -18.42 -18.42 -18.42 -18.42 -18.42 -18.42 -18.42 -18.42 -18.42 -18.42 -18.42 -18.42 -18.42 -18.42 -18.42 -18.42 -18.42 -18.42 -18.42 -18.42 -18.42 -18.42 -18.42 -18.42 -18.42 -18.42 -18.42 -18.42 -18.42 -18.42 -18.42 -18.42 -18.42 -18.42 -18.42 -18.42 -18.42 -18.42 -18.42 -18.42 -18.42 -18.42 -18.42 -18.42 -18.42 -18.42 -18.42 -18.42 -18.42 -18.42 -18.42 -18.42 -18.42 -18.42 -18.42 -18.42 -18.42 -18.42 -18.42 -18.42 -18.42 -18.42 -18.42 -18.42 -18.42 -18.42 -18.42 -18.42 -18.42 -18.42 -18.42 -18.42 -18.42 -18.42 -18.42 -18.42 -18.42 -18.42 -18.42 -18.42 -18.42 -18.42 -18.42 -18.42 -18.42 -18.42 -18.42 -18.42 -18.42 -18.42 -18.42 -18.42 -18.42 -18.42 -18.42 -18.42 -18.42 -18.42 -18.42 -18.42 -18.42 -18.42 -18.42 -18.42 -18.42 -18.42 -18.42 -18.42 -18.42 -18.42 -18.42 -18.42 -18.42 -18.42 -18.42 -18.42 -18.42 -18.42 -18.42 -18.42 -18.42 -18.42 -18.42 -18.42 -18.42 -18.42 -18.42 -18.42 -18.42 -18.42 -18.42 -18.42 -18.42 -18.42 -18.42 -18.42 -18.42 -18.42 -18.42 -18.42 -18.42 -18.42 -18.42 -18.42 -18.42 -18.42 -18.42 -18.42 -18.42 -18.42 -18.42 -18.42 -18.42 -18.42 -18.42 -18.42 -18.42 -18.42 -18.42 -18.42 -18.42 -18.42 -18.42 -18.42 -18.42 -18.42 -18.42 -18.42 -18.42 -18.42 -18.42 -18.42 -18.42 -18.42 -18.42 -18.42 -18.42 -18.42 -18.42 -18.42 -18.42 -18.42 -18.42 -18.42 -18.42 -18.42 -18.42 -18.42 -18.42 -18.42 -18.42 -18.42 -18.42 -18.42 -18.42 -18.42 -18.42 -18.42 -18.42 -18.42 -18.42 -18.42 -18.42 -18.42 -18.42 -18.42 -18.42 -18.42 -18.42 -18.42 -18.42 -18.42 -18.42 -18.42 -18.42 -18.42 -18.42 -18.42 -18.42 -18.42 -18.42 -18.42 -18.42 -18.42 -18.42 -18.42 -18.42 -18.42 -18.42 -18.42 -18.42 -18.42 -18.42 -18.42 -18.42 -18.42 -18.42 -18.42 -18.42 -18.42 -18.42 -18.42 -18.42 -18.42 -18.42 -18.42 -18.42 -18.42 -18.42 -18.42 -18.42 -18.42 -18.42 -18.42 -18.42 -18.42 -18.42 -18.42 -18.42 -18.42 -18.42 -18.42 -18.42 -18.42 -18.42 -18.42 -18.42 -18.42 -18.42 -18.42 -18.42 -18.42 -18.42 -18.42 -18.42 -18.42 -18.42 -18.42 -18.42 -18.42 -18.42 -18.42 -18.42 -18.42 -18.42 -18.42 -18.42 -18.42 -18.42 -18.42 -18.42 -18.42 -18.42 -18.42 -18.42 -18.42 -18.42 -18.42 -18.42 -18.42 -18.42 -18.42 -18.42 -18.42 -18.42 -18.42 -18.42 -18.42 -18.42 -18.42 -18.42 -18.42 -18.42 -18.42 -18.42 -18.42 -18.42 -18.42 -18.42 -18.42 -18.42 -18.42 -18.42 -18.42 -18.42 -18.42 -18.42 -18.42 -18.42 -18.42 -18.42 -18.42 -18.42 -18.42 -18.42 -18.42 -18.42 -18.42 -18.42 -18.42 -18.42 -18.42 -18.42 -18.42 -18.42 -18.42 -18.42 -18.42 -18.42 -18.42 -18.42 -18.42 -18.42 -18.42 -18.42 -18.42 -18.42 -18.42 -18.42 -18.42 -18.42 -18.42 -18.42 -18.42 -18.42 -18.42 -18.42 -18.42 -18.42 -18.42 -18.42 -18.42 -18.42 -18.42 -18.42 -18.42 -18.42 -18.42 -18.42 -18.42 -18.42 -18.42 -18.42 -18.42 -18.42 -18.42 -18.42 -18.42 -18.42 -18.42 -18.42 -18.42 -18.42 -18.42 -18.42 -18.42 -18.42 -18.42 -18.42 -18.42 -18.42 -18.42 -18.42 -18.42 -18.42 -18.42 -18.42 -18.42 -18.42 -18.42 -18.42 -18.42 -18.42 -18.42 -18.42 -18.42 -18.42 -18.42 -18.42 -18.42 -18.42 -18.42 -18.42 -18.42 -18.42 -18.42 -18.42 -18.42 -18.42 -18.42 -18.42 -18.42 -18.42 -18.42 -18.42 -18.42 -18.42 -18.42 -18.42 -18.42 -18.42 -18.42 -18.42 -18.42 -18.42 -18.42 -18.42 -18.42 -18.42 -18.42 -18.42 -18.42 -18.42 -18.42 -18.42 -18.42 -18.42 -18.42 -18.42 -18.42 -18.42 -18.42 -18.42 -18.42 -18.42 -18.42 -18.42 -18.42 -18.42 -18.42 -18.42 -18.42 -18.42 -18.42 -18.42 -18.42 -18.42 -18.42 -18.42 -18.42 -18.42 -18.42 -18.42 -18.42 -18.42 -18.42 -18.42 -18.42 -18.42 -18.42 -18.42 -18.42 -18.42 -18.42 -18.42 -18.42 -18.42 -18.42 -18.42 -18.42 -18.42 -18.42 -18.42 -18.42 -18.42 -18.42 -18.42 -18.42 -18.42 -18.42 -18.42 -18.42 -18.42 -18.42 -18.42 -18.42 -18.42 -18.42 -18.42 -18.42 -18.42 -18.42 -18.42 -18.42 -18.42 -18.42 -18.42 -18.42 -18.42 -18.42 -18.42 -18.42 -18.42 -18.42 -18.42 -18.42 -18.42 -18.42 -18.42 -18.42 -18.42 -18.42 -18.42 -18.42 -18.42 -18.42 -18.42 -18.42 -18.42 -18.42 -18.42 -18.42 -18.42 -18.42 -18.42 -18.42 -18.42 -18.42 -18.42 -18.42 -18.42 -18.42 -18.42 -18.42 -18.42 -18.42 -18.42 -18.42 -18.42 -18.42 -18.42 -18.42 -18.42 -18.42 -18.42 -18.42 -18.42 -18.42 -18.42 -18.42 -18.42 -18.42 -18.42 -18.42 -18.42 -18.42 -18.42 -18.42 -18.42 -18.42 -18.42 -18.42 -18.42 -18.42 -18.42 -18.42 -18.42 -18.42 -18.42 -18.42 -18.42 -18.42 -18.42 -18.42 -18.42 -18.42 -18.42 -18.42 -18.42 -18.42 -18.42 -18.42 -18.42 -18.42 -18.42 -18.42 -18.42 -18.42 -18.42 -18.42 -18.42 -18.42 -18.42 -18.42 -18.42 -18.42 -18.42 -18.42 -18.42 -18.42 -18.42 -18.42 -18.42 -18.42 -18.42 -18.42 -18.42 -18.42 -18.42 -18.42 -18.42 -18.42 -18.42 -18.42 -18.42 -18.42 -18.42 -18.42 -18.42 -18.42 -18.42 -18.42 -18.42 -18.42 -18.42 -18.42 -18.42 -18.42 -18.42 -18.42 -18.42 -18.42 -18.42 -18.42 -18.42 -18.42 -18.42 -18.42 -18.42 -18.42 -18.42 -18.42 -18.42 -18.42 -18.42 -18.42 -18.42 -18.42 -18.42 -18.42 -18.42 -18.42 -18.42 -18.42 -18.42 -18.42 -18.42 -18.42 -18.42 -18.42 -18.42 -18.42 -18.42 -18.42 -18.42 -18.42 -18.42 -18.42 -18.42 -18.42 -18.42 -18.42 -18.42 -18.42 -18.42 -18.42 -18.42 -18.42 -18.42 -18.42 -18.42 -18.42 -18.42 -18.42 -18.42 -18.42 -18.42 -18.42 -18.42 -18.42 -18.42 -18.42 -18.42 -18.42 -18.42 -18.42 -18.42 -18.42 -18.42 -18.42 -18.42 -18.42 -18.42 -18.42 -18.42 -18.42 -18.42 -18.42 -18.42 -18.42 -18.42 -18.42 -18.42 -18.42 -18.42 -18.42 -18.42 -18.42 -18.42 -18.42 -18.42 -18.42 -18.42 -18.42 -18.42 -18.42 -18.42 -18.42 -18.42 -18.42 -18.42 -18.42 -18.42 -18.42 -18.42 -18.42 -18.42 -18.42 -18.42 -18.42 -18.42 -18.42 -18.42 -18.42 -18.42 -18.42 -18.42 -18.42 -18.42 -18.42 -18.42 -18.42 -18.42 -18.42 -18.42 -18.42 -18.42 -18.42 -18.42 -18.42 -18.42 -18.42 -18.42 -18.42 -18.42 -18.42 -18.42 -18.42 -18.42 -18.42 -18.42 -18.42 -18.42 -18.42 -18.42 -18.42 -18.42 -18.42 -18.42 -18.42 -18.42 -18.42 -18.42 -18.42 -18.42 -18.42 -18.42 -18.42 -18.42 -18.42 -18.42 -18.42 -18.42 -18.42 -18.42 -18.42 -18.42 -18.42 -18.42 -18.42 -18.42 -18.42 -18.42 -18.42 -18.42 -18.42 -18.42 -18.42 -18.42 -18.42 -18.42 -18.42 -18.42 -18.42 -18.42 -18.42 -18.42 -18.42 -18.42 -18.42 -18.42 -18.42 -18.42 -18.42 -18.42 -18.42 -18.42 -18.42 -18.42 -18.42 -18.42 -18.42 -18.42 -18.42 -18.42 -18.42 -18.42 -18.42 -18.42 -18.42 -18.42 -18.42 -18.42 -18.42 -18.42 -18.42 -18.42 -18.42 -18.42 -18.42 -18.42 -18.42 -18.42 -18.42 -18.42 -18.42 -18.42 -18.42 -18.42 -18.42 -18.42 -18.42 -18.42 -18.42 -18.42 -18.42 -18.42 -18.42 -18.42 -18.42 -18.42 -18.42 -18.42 -18.42 -18.42 -18.42 -18.42 -18.42 -18.42 -18.42 -18.42 -18.42 -18.42 -18.42 -18.42 -18.42 -18.42 -18.42 -18.42 -18.42 -18.42 -18.42 -18.42 -18.42 -18.42 -18.42 -18.42 -18.42 -18.42 -18.42 -18.42 -18.42 -18.42 -18.42 -18.42 -18.42 -18.42 -18.42 -18.42 -18.42 -18.42 -18.42 -18.42 -18.42 -18.42 -18.42 -18.42 -18.42 -18.42 -18.42 -18.42 -18.42 -18.42 -18.42 -18.42 -18.42 -18.42 -18.42 -18.42 -18.42 -18.42 -18.42 -18.42 -18.42 -18.42 -18.42 -18.42 -18.42 -18.42 -18.42 -18.42 -18.42 -18.42 -18.42 -18.42 -18.42 -18.42 -18.42 -18.42 -18.42 -18.42 -18.42 -18.42 -18.42 -18.42 -18.42 -18.42 -18.42 -18.42 -18.42 -18.42 -18.42 -18.42 -18.42 -18.42 -18.42 -18.42 -18.42 -18.42 -18.42 -18.42 -18.42 -18.42 -18.42 -18.42 -18.42 -18.42 -18.42 -18.42 -18.42 -18.42 -18.42 -18.42 -18.42 -18.42 -18.42 -18.42 -18.42 -18.42 -18.42 -18.42 -18.42 -18.42 -18.42 -18.42 -18.42 -18.42 -18.42 -18.42 -18.42 -18.42 -18.42 -18.42 -18.42 -18.42 -18.42 -18.42 -18.42 -18.42 -18.42 -18.42 -18.42 -18.42 -18.42 -18.42 -18.42 -18.42 -18.42 -18.42 -18.42 -18.42 -18.42 -18.42 -18.42 -18.42 -18.42 -18.42 -18.42 -18.42 -18.42 -18.42 -18.42 -18.42 -18.42 -18.42 -18.42 -18.42 -18.42 -18.42 -18.42 -18.42 -18.42 -18.42 -18.42 -18.42 -18.42 -18.42 -18.42 -18.42 -18.42 -18.42 -18.42 -18.42 -18.42 -18.42 -18.42 -18.42 -18.42 -18.42 -18.42 -18.42 -18.42 -18.42 -18.42 -18.42 -18.42 -18.42 -18.42 -18.42 -18.42 -18.42 -18.42 -18.42 -18.42 -18.42 -18.42 -18.42 -18.42 -18.42 -18.42 -18.42 -18.42 -18.42 -18.42 -18.42 -18.42 -18.42 -18.42 -18.42 -18.42 -18.42 -18.42 -18.42 -18.42 -18.42 -18.42 -18.42 -18.42 -18.42 -18.42 -18.42 -18.42 -18.42 -18.42 -18.42 -18.42 -18.42 -18.42 -18.42 -18.42 -18.42 -18.42 -18.42 -18.42 -18.42 -18.42 -18.42 -18.42 -18.42 -18.42 -18.42 -18.42 -18.42 -18.42 -18.42 -18.42 -18.42 -18.42 -18.42 -18.42 -18.42 -18.42 -18.42 -18.42 -18.42 -18.42 -18.42 -18.42 -18.42 -18.42 -18.42 -18.42 -18.42 -18.42 -18.42 -18.42 -18.42 -18.42 -18.42 -18.42 -18.42 -18.42 -18.42 -18.42 -18.42 -18.42 -18.42 -18.42 -18.42 -18.42 -18.42 -18.42 -18.42 -18.42 -18.42 -18.42 -18.42 -18.42 -18.42 -18.42 -18.42 -18.42 -18.42 -18.42 -18.42 -18.42 -18.42 -18.42 -18.42 -18.42 -18.42 -18.42 -18.42 -18.42 -18.42 -18.42 -18.42 -18.42 -18.42 -18.42 -18.42 -18.42 -18.42 -18.42 -18.42 -18.42 -18.42 -18.42 -18.42 -18.42 -18.42 -18.42 -18.42 -18.42 -18.42 -18.42 -18.42 -18.42 -18.42 -18.42 -18.42 -18.42 -18.42 -18.42 -18.42 -18.42 -18.42 -18.42 -18.42 -18.42 -18.42 -18.42 -18.42 -18.42 -18.42 -18.42 -18.42 -18.42 -18.42 -18.42 -18.42 -18.42 -18.42 -18.42 -18.42 -18.42 -18.42 -18.42 -18.42 -18.42 -18.42 -18.42 -18.42 -18.42 -18.42 -18.42 -18.42 -18.42 -18.42 -18.42 -18.42 -18.42 -18.42 -18.42 -18.42 -18.42 -18.42 -18.42 -18.42 -18.42 -18.42 -18.42 -18.42 -18.42 -18.42 -18.42 -18.42 -18.42 -18.42 -18.42 -18.42 -18.42 -18.42 -18.42 -18.42 -18.42 -18.42 -18.42 -18.42 -18.42 -18.42 -18.42 -18.42 -18.42 -18.42 -18.42 -18.42 -18.42 -18.42 -18.42 -18.42 -18.42 -18.42 -18.4