# vtk DataFile Version 2.0
VTK from Matlab
ASCII
DATASET STRUCTURED_GRID
DIMENSIONS 96 48 16
POINTS 73728 float
-48.00 -33.00 -19.00 -44.00 -33.00 -19.00 -40.00 -33.00 -19.00 -36.00 -33.00 -19.00 -33.00 -33.00 -19.00 -31.00 -33.00 -19.00 -29.50 -33.00 -19.00 -28.50 -33.00 -19.00 -27.50 -33.00 -19.00 -26.50 -33.00 -19.00 -25.50 -33.00 -19.00 -24.50 -33.00 -19.00 -23.50 -33.00 -19.00 -22.50 -33.00 -19.00 -21.50 -33.00 -19.00 -20.50 -33.00 -19.00 -19.50 -33.00 -19.00 -18.50 -33.00 -19.00 -17.50 -33.00 -19.00 -16.50 -33.00 -19.00 -15.50 -33.00 -19.00 -14.50 -33.00 -19.00 -13.50 -33.00 -19.00 -12.50 -33.00 -19.00 -11.75 -33.00 -19.00 -11.25 -33.00 -19.00 -10.75 -33.00 -19.00 -10.25 -33.00 -19.00 -9.75 -33.00 -19.00 -9.25 -33.00 -19.00 -8.75 -33.00 -19.00 -8.25 -33.00 -19.00 -7.75 -33.00 -19.00 -7.25 -33.00 -19.00 -6.75 -33.00 -19.00 -6.25 -33.00 -19.00 -5.75 -33.00 -19.00 -5.25 -33.00 -19.00 -4.75 -33.00 -19.00 -4.25 -33.00 -19.00 -3.75 -33.00 -19.00 -3.25 -33.00 -19.00 -2.75 -33.00 -19.00 -2.25 -33.00 -19.00 -1.75 -33.00 -19.00 -1.25 -33.00 -19.00 -0.75 -33.00 -19.00 -0.25 -33.00 -19.00 0.25 -33.00 -19.00 0.75 -33.00 -19.00 1.25 -33.00 -19.00 1.75 -33.00 -19.00 2.25 -33.00 -19.00 2.75 -33.00 -19.00 3.25 -33.00 -19.00 3.75 -33.00 -19.00 4.25 -33.00 -19.00 4.75 -33.00 -19.00 5.25 -33.00 -19.00 5.75 -33.00 -19.00 6.25 -33.00 -19.00 6.75 -33.00 -19.00 7.25 -33.00 -19.00 7.75 -33.00 -19.00 8.25 -33.00 -19.00 8.75 -33.00 -19.00 9.25 -33.00 -19.00 9.75 -33.00 -19.00 10.25 -33.00 -19.00 10.75 -33.00 -19.00 11.25 -33.00 -19.00 11.75 -33.00 -19.00 12.50 -33.00 -19.00 13.50 -33.00 -19.00 14.50 -33.00 -19.00 15.50 -33.00 -19.00 16.50 -33.00 -19.00 17.50 -33.00 -19.00 18.50 -33.00 -19.00 19.50 -33.00 -19.00 20.50 -33.00 -19.00 21.50 -33.00 -19.00 22.50 -33.00 -19.00 23.50 -33.00 -19.00 24.50 -33.00 -19.00 25.50 -33.00 -19.00 26.50 -33.00 -19.00 27.50 -33.00 -19.00 28.50 -33.00 -19.00 29.50 -33.00 -19.00 31.00 -33.00 -19.00 33.00 -33.00 -19.00 36.00 -33.00 -19.00 40.00 -33.00 -19.00 44.00 -33.00 -19.00 48.00 -33.00 -19.00 -48.00 -29.00 -19.00 -44.00 -29.00 -19.00 -40.00 -29.00 -19.00 -36.00 -29.00 -19.00 -33.00 -29.00 -19.00 -31.00 -29.00 -19.00 -29.50 -29.00 -19.00 -28.50 -29.00 -19.00 -27.50 -29.00 -19.00 -26.50 -29.00 -19.00 -25.50 -29.00 -19.00 -24.50 -29.00 -19.00 -23.50 -29.00 -19.00 -22.50 -29.00 -19.00 -21.50 -29.00 -19.00 -20.50 -29.00 -19.00 -19.50 -29.00 -19.00 -18.50 -29.00 -19.00 -17.50 -29.00 -19.00 -16.50 -29.00 -19.00 -15.50 -29.00 -19.00 -14.50 -29.00 -19.00 -13.50 -29.00 -19.00 -12.50 -29.00 -19.00 -11.75 -29.00 -19.00 -11.25 -29.00 -19.00 -10.75 -29.00 -19.00 -10.25 -29.00 -19.00 -9.75 -29.00 -19.00 -9.25 -29.00 -19.00 -8.75 -29.00 -19.00 -8.25 -29.00 -19.00 -7.75 -29.00 -19.00 -7.25 -29.00 -19.00 -6.75 -29.00 -19.00 -6.25 -29.00 -19.00 -5.75 -29.00 -19.00 -5.25 -29.00 -19.00 -4.75 -29.00 -19.00 -4.25 -29.00 -19.00 -3.75 -29.00 -19.00 -3.25 -29.00 -19.00 -2.75 -29.00 -19.00 -2.25 -29.00 -19.00 -1.75 -29.00 -19.00 -1.25 -29.00 -19.00 -0.75 -29.00 -19.00 -0.25 -29.00 -19.00 0.25 -29.00 -19.00 0.75 -29.00 -19.00 1.25 -29.00 -19.00 1.75 -29.00 -19.00 2.25 -29.00 -19.00 2.75 -29.00 -19.00 3.25 -29.00 -19.00 3.75 -29.00 -19.00 4.25 -29.00 -19.00 4.75 -29.00 -19.00 5.25 -29.00 -19.00 5.75 -29.00 -19.00 6.25 -29.00 -19.00 6.75 -29.00 -19.00 7.25 -29.00 -19.00 7.75 -29.00 -19.00 8.25 -29.00 -19.00 8.75 -29.00 -19.00 9.25 -29.00 -19.00 9.75 -29.00 -19.00 10.25 -29.00 -19.00 10.75 -29.00 -19.00 11.25 -29.00 -19.00 11.75 -29.00 -19.00 12.50 -29.00 -19.00 13.50 -29.00 -19.00 14.50 -29.00 -19.00 15.50 -29.00 -19.00 16.50 -29.00 -19.00 17.50 -29.00 -19.00 18.50 -29.00 -19.00 19.50 -29.00 -19.00 20.50 -29.00 -19.00 21.50 -29.00 -19.00 22.50 -29.00 -19.00 23.50 -29.00 -19.00 24.50 -29.00 -19.00 25.50 -29.00 -19.00 26.50 -29.00 -19.00 27.50 -29.00 -19.00 28.50 -29.00 -19.00 29.50 -29.00 -19.00 31.00 -29.00 -19.00 33.00 -29.00 -19.00 36.00 -29.00 -19.00 40.00 -29.00 -19.00 44.00 -29.00 -19.00 48.00 -29.00 -19.00 -48.00 -25.00 -19.00 -44.00 -25.00 -19.00 -40.00 -25.00 -19.00 -36.00 -25.00 -19.00 -33.00 -25.00 -19.00 -31.00 -25.00 -19.00 -29.50 -25.00 -19.00 -28.50 -25.00 -19.00 -27.50 -25.00 -19.00 -26.50 -25.00 -19.00 -25.50 -25.00 -19.00 -24.50 -25.00 -19.00 -23.50 -25.00 -19.00 -22.50 -25.00 -19.00 -21.50 -25.00 -19.00 -20.50 -25.00 -19.00 -19.50 -25.00 -19.00 -18.50 -25.00 -19.00 -17.50 -25.00 -19.00 -16.50 -25.00 -19.00 -15.50 -25.00 -19.00 -14.50 -25.00 -19.00 -13.50 -25.00 -19.00 -12.50 -25.00 -19.00 -11.75 -25.00 -19.00 -11.25 -25.00 -19.00 -10.75 -25.00 -19.00 -10.25 -25.00 -19.00 -9.75 -25.00 -19.00 -9.25 -25.00 -19.00 -8.75 -25.00 -19.00 -8.25 -25.00 -19.00 -7.75 -25.00 -19.00 -7.25 -25.00 -19.00 -6.75 -25.00 -19.00 -6.25 -25.00 -19.00 -5.75 -25.00 -19.00 -5.25 -25.00 -19.00 -4.75 -25.00 -19.00 -4.25 -25.00 -19.00 -3.75 -25.00 -19.00 -3.25 -25.00 -19.00 -2.75 -25.00 -19.00 -2.25 -25.00 -19.00 -1.75 -25.00 -19.00 -1.25 -25.00 -19.00 -0.75 -25.00 -19.00 -0.25 -25.00 -19.00 0.25 -25.00 -19.00 0.75 -25.00 -19.00 1.25 -25.00 -19.00 1.75 -25.00 -19.00 2.25 -25.00 -19.00 2.75 -25.00 -19.00 3.25 -25.00 -19.00 3.75 -25.00 -19.00 4.25 -25.00 -19.00 4.75 -25.00 -19.00 5.25 -25.00 -19.00 5.75 -25.00 -19.00 6.25 -25.00 -19.00 6.75 -25.00 -19.00 7.25 -25.00 -19.00 7.75 -25.00 -19.00 8.25 -25.00 -19.00 8.75 -25.00 -19.00 9.25 -25.00 -19.00 9.75 -25.00 -19.00 10.25 -25.00 -19.00 10.75 -25.00 -19.00 11.25 -25.00 -19.00 11.75 -25.00 -19.00 12.50 -25.00 -19.00 13.50 -25.00 -19.00 14.50 -25.00 -19.00 15.50 -25.00 -19.00 16.50 -25.00 -19.00 17.50 -25.00 -19.00 18.50 -25.00 -19.00 19.50 -25.00 -19.00 20.50 -25.00 -19.00 21.50 -25.00 -19.00 22.50 -25.00 -19.00 23.50 -25.00 -19.00 24.50 -25.00 -19.00 25.50 -25.00 -19.00 26.50 -25.00 -19.00 27.50 -25.00 -19.00 28.50 -25.00 -19.00 29.50 -25.00 -19.00 31.00 -25.00 -19.00 33.00 -25.00 -19.00 36.00 -25.00 -19.00 40.00 -25.00 -19.00 44.00 -25.00 -19.00 48.00 -25.00 -19.00 -48.00 -21.00 -19.00 -44.00 -21.00 -19.00 -40.00 -21.00 -19.00 -36.00 -21.00 -19.00 -33.00 -21.00 -19.00 -31.00 -21.00 -19.00 -29.50 -21.00 -19.00 -28.50 -21.00 -19.00 -27.50 -21.00 -19.00 -26.50 -21.00 -19.00 -25.50 -21.00 -19.00 -24.50 -21.00 -19.00 -23.50 -21.00 -19.00 -22.50 -21.00 -19.00 -21.50 -21.00 -19.00 -20.50 -21.00 -19.00 -19.50 -21.00 -19.00 -18.50 -21.00 -19.00 -17.50 -21.00 -19.00 -16.50 -21.00 -19.00 -15.50 -21.00 -19.00 -14.50 -21.00 -19.00 -13.50 -21.00 -19.00 -12.50 -21.00 -19.00 -11.75 -21.00 -19.00 -11.25 -21.00 -19.00 -10.75 -21.00 -19.00 -10.25 -21.00 -19.00 -9.75 -21.00 -19.00 -9.25 -21.00 -19.00 -8.75 -21.00 -19.00 -8.25 -21.00 -19.00 -7.75 -21.00 -19.00 -7.25 -21.00 -19.00 -6.75 -21.00 -19.00 -6.25 -21.00 -19.00 -5.75 -21.00 -19.00 -5.25 -21.00 -19.00 -4.75 -21.00 -19.00 -4.25 -21.00 -19.00 -3.75 -21.00 -19.00 -3.25 -21.00 -19.00 -2.75 -21.00 -19.00 -2.25 -21.00 -19.00 -1.75 -21.00 -19.00 -1.25 -21.00 -19.00 -0.75 -21.00 -19.00 -0.25 -21.00 -19.00 0.25 -21.00 -19.00 0.75 -21.00 -19.00 1.25 -21.00 -19.00 1.75 -21.00 -19.00 2.25 -21.00 -19.00 2.75 -21.00 -19.00 3.25 -21.00 -19.00 3.75 -21.00 -19.00 4.25 -21.00 -19.00 4.75 -21.00 -19.00 5.25 -21.00 -19.00 5.75 -21.00 -19.00 6.25 -21.00 -19.00 6.75 -21.00 -19.00 7.25 -21.00 -19.00 7.75 -21.00 -19.00 8.25 -21.00 -19.00 8.75 -21.00 -19.00 9.25 -21.00 -19.00 9.75 -21.00 -19.00 10.25 -21.00 -19.00 10.75 -21.00 -19.00 11.25 -21.00 -19.00 11.75 -21.00 -19.00 12.50 -21.00 -19.00 13.50 -21.00 -19.00 14.50 -21.00 -19.00 15.50 -21.00 -19.00 16.50 -21.00 -19.00 17.50 -21.00 -19.00 18.50 -21.00 -19.00 19.50 -21.00 -19.00 20.50 -21.00 -19.00 21.50 -21.00 -19.00 22.50 -21.00 -19.00 23.50 -21.00 -19.00 24.50 -21.00 -19.00 25.50 -21.00 -19.00 26.50 -21.00 -19.00 27.50 -21.00 -19.00 28.50 -21.00 -19.00 29.50 -21.00 -19.00 31.00 -21.00 -19.00 33.00 -21.00 -19.00 36.00 -21.00 -19.00 40.00 -21.00 -19.00 44.00 -21.00 -19.00 48.00 -21.00 -19.00 -48.00 -18.00 -19.00 -44.00 -18.00 -19.00 -40.00 -18.00 -19.00 -36.00 -18.00 -19.00 -33.00 -18.00 -19.00 -31.00 -18.00 -19.00 -29.50 -18.00 -19.00 -28.50 -18.00 -19.00 -27.50 -18.00 -19.00 -26.50 -18.00 -19.00 -25.50 -18.00 -19.00 -24.50 -18.00 -19.00 -23.50 -18.00 -19.00 -22.50 -18.00 -19.00 -21.50 -18.00 -19.00 -20.50 -18.00 -19.00 -19.50 -18.00 -19.00 -18.50 -18.00 -19.00 -17.50 -18.00 -19.00 -16.50 -18.00 -19.00 -15.50 -18.00 -19.00 -14.50 -18.00 -19.00 -13.50 -18.00 -19.00 -12.50 -18.00 -19.00 -11.75 -18.00 -19.00 -11.25 -18.00 -19.00 -10.75 -18.00 -19.00 -10.25 -18.00 -19.00 -9.75 -18.00 -19.00 -9.25 -18.00 -19.00 -8.75 -18.00 -19.00 -8.25 -18.00 -19.00 -7.75 -18.00 -19.00 -7.25 -18.00 -19.00 -6.75 -18.00 -19.00 -6.25 -18.00 -19.00 -5.75 -18.00 -19.00 -5.25 -18.00 -19.00 -4.75 -18.00 -19.00 -4.25 -18.00 -19.00 -3.75 -18.00 -19.00 -3.25 -18.00 -19.00 -2.75 -18.00 -19.00 -2.25 -18.00 -19.00 -1.75 -18.00 -19.00 -1.25 -18.00 -19.00 -0.75 -18.00 -19.00 -0.25 -18.00 -19.00 0.25 -18.00 -19.00 0.75 -18.00 -19.00 1.25 -18.00 -19.00 1.75 -18.00 -19.00 2.25 -18.00 -19.00 2.75 -18.00 -19.00 3.25 -18.00 -19.00 3.75 -18.00 -19.00 4.25 -18.00 -19.00 4.75 -18.00 -19.00 5.25 -18.00 -19.00 5.75 -18.00 -19.00 6.25 -18.00 -19.00 6.75 -18.00 -19.00 7.25 -18.00 -19.00 7.75 -18.00 -19.00 8.25 -18.00 -19.00 8.75 -18.00 -19.00 9.25 -18.00 -19.00 9.75 -18.00 -19.00 10.25 -18.00 -19.00 10.75 -18.00 -19.00 11.25 -18.00 -19.00 11.75 -18.00 -19.00 12.50 -18.00 -19.00 13.50 -18.00 -19.00 14.50 -18.00 -19.00 15.50 -18.00 -19.00 16.50 -18.00 -19.00 17.50 -18.00 -19.00 18.50 -18.00 -19.00 19.50 -18.00 -19.00 20.50 -18.00 -19.00 21.50 -18.00 -19.00 22.50 -18.00 -19.00 23.50 -18.00 -19.00 24.50 -18.00 -19.00 25.50 -18.00 -19.00 26.50 -18.00 -19.00 27.50 -18.00 -19.00 28.50 -18.00 -19.00 29.50 -18.00 -19.00 31.00 -18.00 -19.00 33.00 -18.00 -19.00 36.00 -18.00 -19.00 40.00 -18.00 -19.00 44.00 -18.00 -19.00 48.00 -18.00 -19.00 -48.00 -16.00 -19.00 -44.00 -16.00 -19.00 -40.00 -16.00 -19.00 -36.00 -16.00 -19.00 -33.00 -16.00 -19.00 -31.00 -16.00 -19.00 -29.50 -16.00 -19.00 -28.50 -16.00 -19.00 -27.50 -16.00 -19.00 -26.50 -16.00 -19.00 -25.50 -16.00 -19.00 -24.50 -16.00 -19
[...]
POINT_DATA 73728
SCALARS data float
LOOKUP_TABLE default
-18.44 -18.15 -17.75 -17.43 -17.37 -17.31 -17.54 -17.83 -17.99 -18.11 -18.13 -18.15 -18.25 -18.26 -18.36 -18.36 -18.38 -18.45 -18.52 -18.54 -18.55 -18.49 -18.36 -18.32 -18.32 -18.22 -18.26 -18.31 -18.29 -18.36 -18.34 -18.32 -18.19 -18.17 -18.14 -18.18 -18.20 -18.11 -18.00 -18.00 -17.98 -17.94 -17.93 -17.92 -18.08 -18.16 -18.30 -18.31 -18.32 -18.29 -18.22 -18.21 -18.18 -18.15 -18.13 -18.12 -18.14 -18.14 -18.24 -18.23 -18.27 -18.30 -18.29 -18.31 -18.38 -18.38 -18.44 -18.52 -18.59 -18.59 -18.66 -18.68 -18.58 -18.66 -18.72 -18.75 -18.70 -18.64 -18.85 -18.79 -18.73 -18.47 -18.44 -18.43 -18.49 -18.51 -18.46 -18.50 -18.38 -18.25 -18.18 -18.20 -18.30 -18.57 -18.21 -17.98 -18.40 -18.03 -17.69 -17.62 -17.65 -17.55 -17.63 -17.85 -17.89 -17.83 -17.79 -17.96 -18.18 -18.21 -18.36 -18.46 -18.42 -18.47 -18.40 -18.35 -18.36 -18.31 -18.08 -17.99 -17.96 -17.85 -17.78 -17.86 -17.89 -17.98 -18.15 -18.23 -18.24 -18.33 -18.33 -18.28 -18.39 -18.32 -18.17 -18.01 -17.96 -17.95 -17.90 -17.89 -17.91 -17.92 -17.91 -17.97 -17.92 -17.97 -17.98 -17.99 -18.02 -17.98 -18.03 -18.12 -18.24 -18.29 -18.39 -18.39 -18.40 -18.52 -18.51 -18.53 -18.51 -18.53 -18.50 -18.55 -18.56 -18.57 -18.57 -18.52 -18.51 -18.61 -18.80 -18.98 -19.00 -19.05 -19.03 -18.90 -18.84 -18.71 -18.69 -18.62 -18.66 -18.59 -18.54 -18.53 -18.62 -18.65 -18.43 -18.41 -18.11 -18.01 -18.15 -18.19 -18.07 -17.85 -17.81 -17.98 -17.96 -17.77 -17.78 -17.83 -17.81 -17.78 -17.89 -17.99 -18.13 -18.14 -18.29 -18.42 -18.38 -18.21 -18.09 -17.97 -17.90 -17.79 -17.80 -17.90 -17.93 -17.89 -17.91 -17.91 -17.97 -18.06 -18.13 -18.19 -18.13 -18.16 -18.13 -18.06 -17.99 -17.84 -17.73 -17.65 -17.61 -17.59 -17.66 -17.69 -17.75 -17.75 -17.75 -17.79 -17.76 -17.81 -17.81 -17.85 -17.89 -17.93 -17.96 -18.05 -18.18 -18.29 -18.40 -18.40 -18.38 -18.46 -18.37 -18.35 -18.40 -18.43 -18.42 -18.45 -18.39 -18.41 -18.32 -18.27 -18.17 -18.22 -18.39 -18.50 -18.62 -18.73 -18.76 -18.69 -18.64 -18.69 -18.66 -18.67 -18.78 -18.73 -18.67 -18.68 -18.70 -18.70 -18.69 -18.46 -18.04 -17.87 -18.02 -18.20 -17.90 -17.86 -17.83 -17.65 -17.77 -17.85 -17.89 -17.90 -17.88 -17.85 -17.90 -18.10 -18.16 -18.06 -18.06 -18.33 -18.35 -18.23 -18.08 -17.87 -17.67 -17.64 -17.68 -17.66 -17.52 -17.49 -17.62 -17.58 -17.64 -17.68 -17.70 -17.73 -17.76 -17.78 -17.79 -17.78 -17.80 -17.77 -17.64 -17.59 -17.57 -17.54 -17.55 -17.54 -17.67 -17.75 -17.79 -17.88 -18.04 -18.06 -18.09 -18.16 -18.12 -18.22 -18.27 -18.32 -18.34 -18.35 -18.33 -18.31 -18.15 -18.23 -18.29 -18.32 -18.32 -18.34 -18.37 -18.51 -18.54 -18.59 -18.64 -18.64 -18.57 -18.53 -18.55 -18.55 -18.57 -18.65 -18.54 -18.49 -18.34 -18.32 -18.39 -18.53 -18.52 -18.61 -18.74 -18.84 -18.77 -18.58 -18.29 -18.00 -17.66 -17.68 -18.22 -18.09 -17.82 -17.90 -18.01 -17.58 -17.62 -17.61 -17.74 -17.78 -17.88 -17.95 -17.92 -17.93 -17.95 -17.95 -18.23 -18.27 -18.23 -18.01 -17.95 -17.71 -17.64 -17.76 -17.70 -17.65 -17.62 -17.54 -17.54 -17.58 -17.47 -17.66 -17.69 -17.61 -17.63 -17.74 -17.86 -17.96 -18.02 -17.97 -17.89 -17.67 -17.55 -17.51 -17.65 -17.77 -17.76 -17.77 -17.75 -17.83 -17.87 -17.91 -18.05 -18.05 -18.26 -18.39 -18.45 -18.51 -18.51 -18.47 -18.38 -18.36 -18.34 -18.39 -18.40 -18.29 -18.31 -18.34 -18.48 -18.46 -18.43 -18.32 -18.26 -18.23 -18.25 -18.50 -18.62 -18.69 -18.64 -18.57 -18.37 -18.31 -18.36 -18.41 -18.32 -18.44 -18.37 -18.44 -18.46 -18.48 -18.38 -18.29 -18.18 -17.83 -17.48 -17.72 -18.02 -17.75 -17.54 -17.68 -17.91 -17.70 -17.55 -17.42 -17.61 -17.67 -17.79 -17.83 -17.76 -17.79 -17.83 -17.75 -17.90 -17.93 -17.85 -17.69 -17.48 -17.58 -17.56 -17.54 -17.56 -17.66 -17.80 -17.74 -17.71 -17.62 -17.57 -17.67 -17.72 -17.65 -17.62 -17.74 -17.84 -17.95 -18.00 -18.02 -18.06 -17.98 -17.86 -17.76 -17.67 -17.60 -17.61 -17.58 -17.59 -17.59 -17.54 -17.64 -17.71 -17.81 -17.92 -17.95 -18.03 -18.09 -18.11 -18.10 -18.12 -18.15 -18.24 -18.44 -18.47 -18.47 -18.46 -18.40 -18.36 -18.29 -18.34 -18.32 -18.30 -18.30 -18.44 -18.67 -18.88 -18.69 -18.50 -18.46 -18.28 -18.24 -18.45 -18.41 -18.25 -18.18 -18.26 -18.20 -18.07 -17.90 -17.87 -18.04 -17.93 -17.68 -17.69 -18.05 -18.27 -17.62 -17.51 -17.62 -17.76 -17.79 -17.66 -17.25 -17.56 -17.75 -17.77 -17.74 -17.67 -17.60 -17.57 -17.58 -17.70 -17.78 -17.68 -17.63 -17.57 -17.59 -17.52 -17.37 -17.50 -17.73 -17.74 -17.79 -17.90 -17.66 -17.57 -17.67 -17.90 -17.87 -17.77 -17.69 -17.73 -17.73 -17.77 -17.73 -17.84 -18.00 -17.93 -17.81 -17.68 -17.55 -17.59 -17.49 -17.45 -17.43 -17.41 -17.58 -17.71 -17.75 -17.80 -17.72 -17.65 -17.68 -17.80 -17.89 -17.92 -17.98 -18.19 -18.39 -18.29 -18.27 -18.23 -18.28 -18.28 -18.18 -18.06 -18.02 -18.07 -18.18 -18.15 -18.24 -18.50 -18.42 -18.39 -18.32 -18.15 -18.32 -18.48 -18.40 -18.17 -18.08 -18.17 -17.95 -17.67 -17.69 -17.75 -17.88 -17.76 -17.66 -17.85 -18.29 -18.27 -17.64 -17.60 -17.74 -17.67 -17.81 -17.63 -17.44 -17.55 -17.59 -17.66 -17.59 -17.64 -17.59 -17.44 -17.61 -17.60 -17.67 -17.60 -17.53 -17.54 -17.50 -17.55 -17.57 -17.61 -17.68 -17.72 -17.81 -17.79 -17.77 -17.85 -17.89 -17.93 -17.91 -17.80 -17.68 -17.63 -17.75 -17.76 -17.81 -17.94 -17.84 -17.75 -17.65 -17.49 -17.36 -17.35 -17.27 -17.30 -17.30 -17.19 -17.43 -17.55 -17.67 -17.67 -17.55 -17.45 -17.50 -17.55 -17.64 -17.77 -17.89 -17.99 -18.15 -18.11 -18.01 -18.02 -18.06 -18.09 -18.18 -18.13 -17.98 -17.98 -17.97 -18.15 -18.12 -18.20 -18.13 -18.10 -18.07 -17.99 -18.01 -18.27 -18.28 -18.14 -18.10 -17.94 -17.66 -17.60 -17.65 -17.59 -17.66 -17.75 -17.72 -17.91 -18.31 -18.14 -17.60 -17.62 -17.76 -17.76 -17.75 -17.50 -17.49 -17.46 -17.41 -17.34 -17.33 -17.43 -17.49 -17.44 -17.47 -17.73 -17.75 -17.65 -17.67 -17.67 -17.63 -17.88 -17.83 -17.71 -17.67 -17.63 -17.67 -17.68 -17.81 -17.84 -17.84 -17.93 -17.70 -17.57 -17.56 -17.62 -17.76 -17.82 -17.87 -17.81 -17.69 -17.51 -17.45 -17.44 -17.35 -17.29 -17.25 -17.21 -17.24 -17.33 -17.38 -17.46 -17.61 -17.61 -17.59 -17.58 -17.55 -17.50 -17.46 -17.64 -17.88 -17.90 -18.09 -17.96 -17.90 -17.87 -17.83 -17.98 -17.96 -17.98 -18.01 -17.97 -18.00 -18.03 -18.05 -18.04 -17.85 -17.70 -17.70 -17.77 -17.88 -18.04 -18.10 -17.97 -18.02 -17.81 -17.64 -17.53 -17.41 -17.34 -17.58 -17.75 -17.74 -17.90 -18.18 -18.17 -17.63 -17.64 -17.80 -17.84 -17.77 -17.58 -17.53 -17.46 -17.49 -17.24 -17.26 -17.40 -17.50 -17.49 -17.50 -17.63 -17.79 -17.83 -17.80 -17.80 -17.90 -18.13 -18.08 -17.98 -17.89 -17.84 -17.67 -17.78 -17.86 -17.91 -17.91 -17.89 -17.76 -17.59 -17.69 -17.67 -17.77 -17.94 -17.95 -17.86 -17.71 -17.69 -17.71 -17.79 -17.75 -17.67 -17.47 -17.43 -17.45 -17.43 -17.44 -17.49 -17.69 -17.78 -17.77 -17.63 -17.65 -17.59 -17.70 -17.77 -17.84 -17.91 -17.86 -17.79 -17.80 -17.86 -17.93 -18.02 -17.96 -18.01 -18.11 -18.11 -18.05 -17.95 -17.98 -17.89 -17.73 -17.56 -17.56 -17.64 -17.76 -17.79 -17.77 -17.75 -17.75 -17.65 -17.61 -17.56 -17.58 -17.57 -17.87 -18.00 -17.93 -17.98 -18.16 -18.26 -17.87 -17.67 -17.71 -17.75 -17.72 -17.53 -17.50 -17.55 -17.50 -17.45 -17.30 -17.46 -17.50 -17.54 -17.47 -17.60 -17.80 -17.87 -17.87 -17.97 -18.03 -18.22 -18.22 -18.15 -18.12 -18.12 -18.04 -18.01 -17.99 -17.98 -17.89 -17.88 -17.78 -17.61 -17.79 -17.82 -17.77 -17.77 -17.88 -17.89 -17.83 -17.84 -17.79 -17.92 -17.94 -17.81 -17.72 -17.60 -17.60 -17.53 -17.63 -17.70 -17.88 -17.78 -17.86 -17.77 -17.64 -17.60 -17.57 -17.65 -17.71 -17.77 -17.69 -17.69 -17.85 -17.89 -17.99 -17.95 -17.94 -17.91 -17.93 -17.90 -17.86 -17.87 -17.87 -17.80 -17.64 -17.55 -17.55 -17.48 -17.51 -17.61 -17.66 -17.61 -17.61 -17.72 -17.79 -17.83 -17.85 -17.92 -17.95 -17.92 -17.93 -18.11 -18.07 -18.16 -17.97 -17.77 -17.76 -17.78 -17.61 -17.44 -17.59 -17.76 -17.65 -17.47 -17.49 -17.55 -17.49 -17.53 -17.55 -17.51 -17.69 -17.75 -17.84 -18.06 -18.20 -18.40 -18.32 -18.26 -18.30 -18.31 -18.21 -18.23 -18.04 -17.99 -18.02 -18.04 -17.92 -17.78 -17.83 -17.89 -17.85 -17.85 -17.91 -17.89 -17.90 -17.77 -17.79 -17.80 -17.82 -17.76 -17.69 -17.64 -17.71 -17.66 -17.73 -17.72 -17.82 -17.83 -17.79 -17.71 -17.73 -17.76 -17.70 -17.62 -17.40 -17.51 -17.58 -17.64 -17.80 -17.93 -17.93 -17.94 -17.88 -17.82 -17.80 -17.82 -17.82 -17.88 -17.76 -17.64 -17.58 -17.55 -17.50 -17.52 -17.35 -17.51 -17.55 -17.49 -17.61 -17.68 -17.85 -17.93 -17.90 -18.13 -18.09 -17.84 -18.01 -18.17 -18.14 -17.99 -17.88 -17.70 -17.80 -17.72 -17.60 -17.50 -17.56 -17.73 -17.83 -17.66 -17.58 -17.65 -17.52 -17.51 -17.50 -17.46 -17.53 -17.64 -17.75 -17.99 -18.37 -18.48 -18.41 -18.40 -18.28 -18.15 -18.13 -18.14 -18.16 -18.02 -18.02 -18.00 -17.88 -17.80 -17.80 -17.82 -17.85 -17.93 -17.92 -17.91 -17.94 -17.94 -17.92 -18.05 -17.95 -17.84 -17.73 -17.60 -17.60 -17.64 -17.61 -17.53 -17.66 -17.73 -17.74 -17.78 -17.67 -17.60 -17.53 -17.48 -17.51 -17.55 -17.66 -17.73 -17.80 -17.88 -17.72 -17.74 -17.62 -17.68 -17.84 -17.85 -17.87 -17.95 -17.69 -17.60 -17.54 -17.53 -17.49 -17.40 -17.26 -17.30 -17.33 -17.40 -17.60 -17.59 -17.55 -17.80 -17.97 -18.06 -18.17 -17.93 -18.10 -18.43 -18.25 -17.97 -17.86 -17.59 -17.80 -17.67 -17.50 -17.41 -17.55 -17.56 -17.84 -17.69 -17.62 -17.55 -17.51 -17.42 -17.38 -17.31 -17.29 -17.61 -17.72 -18.04 -18.28 -18.27 -18.32 -18.23 -18.28 -18.14 -18.00 -17.92 -17.96 -18.00 -18.11 -18.04 -18.03 -17.91 -17.96 -17.85 -17.86 -17.87 -17.71 -17.69 -17.79 -17.86 -17.99 -17.91 -17.88 -17.77 -17.74 -17.68 -17.49 -17.47 -17.56 -17.62 -17.69 -17.56 -17.65 -17.58 -17.44 -17.41 -17.40 -17.37 -17.39 -17.42 -17.55 -17.77 -17.78 -17.85 -17.81 -17.77 -17.69 -17.77 -17.75 -17.81 -17.93 -17.84 -17.59 -17.51 -17.39 -17.32 -17.21 -17.16 -17.04 -17.02 -17.13 -17.30 -17.41 -17.44 -17.64 -17.76 -17.77 -17.94 -18.25 -18.09 -18.10 -18.38 -18.27 -18.00 -17.86 -17.54 -17.72 -17.72 -17.33 -17.38 -17.43 -17.48 -17.71 -17.77 -17.63 -17.58 -17.48 -17.33 -17.33 -17.39 -17.32 -17.44 -17.76 -17.97 -18.11 -18.24 -18.22 -18.09 -18.23 -18.08 -17.98 -17.84 -17.92 -17.97 -17.99 -17.96 -17.95 -17.94 -18.04 -18.15 -18.13 -18.02 -17.87 -17.72 -17.67 -17.66 -17.50 -17.58 -17.45 -17.51 -17.46 -17.51 -17.47 -17.48 -17.41 -17.48 -17.57 -17.48 -17.52 -17.57 -17.46 -17.43 -17.49 -17.52 -17.51 -17.43 -17.53 -17.58 -17.82 -17.92 -17.87 -17.77 -17.76 -17.82 -17.87 -17.95 -18.01 -17.89 -17.64 -17.44 -17.23 -17.16 -17.25 -17.14 -17.05 -16.90 -17.03 -17.06 -17.21 -17.35 -17.58 -17.66 -17.73 -18.01 -18.22 -18.12 -18.04 -18.26 -18.34 -18.11 -17.84 -17.54 -17.79 -17.73 -17.24 -17.38 -17.50 -17.70 -17.73 -17.89 -17.87 -17.71 -17.44 -17.44 -17.48 -17.32 -17.35 -17.52 -17.76 -17.94 -18.14 -18.31 -18.18 -18.01 -18.02 -17.99 -17.93 -17.93 -17.98 -17.97 -17.83 -17.82 -17.98 -18.11 -18.20 -18.13 -18.04 -18.06 -17.98 -17.88 -17.75 -17.67 -17.51 -17.60 -17.47 -17.47 -17.47 -17.40 -17.41 -17.39 -17.47 -17.45 -17.48 -17.43 -17.52 -17.51 -17.56 -17.58 -17.57 -17.67 -17.67 -17.65 -17.70 -17.69 -17.72 -17.97 -17.96 -17.83 -17.73 -17.76 -17.89 -17.91 -18.05 -17.95 -17.74 -17.30 -17.06 -17.07 -17.11 -17.06 -17.05 -16.86 -16.91 -17.09 -17.36 -17.37 -17.55 -17.72 -17.74 -17.99 -18.14 -18.06 -17.97 -18.34 -18.55 -18.28 -17.96 -17.62 -17.83 -17.68 -17.23 -17.28 -17.46 -17.78 -17.76 -17.73 -17.63 -17.51 -17.43 -17.39 -17.44 -17.33 -17.28 -17.37 -17.40 -17.71 -17.93 -18.18 -17.96 -17.76 -17.73 -17.75 -17.68 -17.81 -17.86 -17.89 -17.99 -17.85 -17.79 -17.84 -17.87 -17.76 -17.77 -17.76 -17.88 -17.82 -17.75 -17.65 -17.63 -17.59 -17.48 -17.57 -17.53 -17.49 -17.47 -17.51 -17.53 -17.39 -17.32 -17.36 -17.47 -17.45 -17.44 -17.53 -17.62 -17.70 -17.60 -17.71 -17.72 -17.66 -17.84 -17.87 -17.86 -17.81 -17.84 -17.76 -17.65 -17.85 -17.85 -17.82 -17.58 -17.44 -17.28 -17.10 -17.12 -17.28 -17.14 -17.02 -16.96 -17.30 -17.58 -17.65 -17.84 -17.98 -17.94 -18.23 -18.33 -18.29 -18.06 -18.43 -18.73 -18.56 -18.18 -17.60 -17.92 -17.67 -17.22 -17.30 -17.38 -17.59 -17.54 -17.46 -17.45 -17.44 -17.44 -17.44 -17.34 -17.06 -17.23 -17.23 -17.29 -17.44 -17.75 -17.83 -17.71 -17.57 -17.51 -17.58 -17.54 -17.60 -17.71 -17.71 -17.68 -17.70 -17.58 -17.55 -17.57 -17.59 -17.60 -17.60 -17.72 -17.75 -17.66 -17.66 -17.64 -17.60 -17.46 -17.44 -17.42 -17.49 -17.54 -17.52 -17.53 -17.40 -17.50 -17.58 -17.60 -17.64 -17.66 -17.70 -17.66 -17.63 -17.58 -17.47 -17.52 -17.51 -17.53 -17.57 -17.63 -17.70 -17.66 -17.61 -17.58 -17.67 -17.70 -17.58 -17.52 -17.40 -17.25 -17.16 -17.24 -17.43 -17.28 -16.90 -17.07 -17.47 -17.67 -17.87 -17.97 -18.02 -18.02 -18.18 -18.29 -18.43 -18.38 -18.48 -18.71 -18.58 -18.15 -17.52 -17.96 -17.64 -17.39 -17.34 -17.48 -17.51 -17.50 -17.37 -17.31 -17.39 -17.46 -17.39 -17.26 -16.96 -17.25 -17.28 -17.19 -17.30 -17.44 -17.51 -17.52 -17.51 -17.57 -17.63 -17.59 -17.66 -17.62 -17.48 -17.68 -17.63 -17.54 -17.55 -17.69 -17.60 -17.51 -17.56 -17.62 -17.70 -17.68 -17.58 -17.61 -17.54 -17.49 -17.50 -17.37 -17.38 -17.40 -17.56 -17.45 -17.58 -17.51 -17.65 -17.60 -17.81 -17.77 -17.70 -17.56 -17.34 -17.27 -17.34 -17.41 -17.33 -17.25 -17.44 -17.45 -17.51 -17.49 -17.58 -17.64 -17.58 -17.82 -17.66 -17.39 -17.30 -17.08 -17.20 -17.38 -17.49 -17.40 -17.05 -17.13 -17.57 -17.69 -17.86 -18.02 -18.18 -18.11 -18.08 -18.23 -18.39 -18.51 -18.54 -18.75 -18.56 -18.19 -17.56 -18.01 -17.74 -17.55 -17.31 -17.50 -17.45 -17.45 -17.31 -17.29 -17.43 -17.29 -17.33 -17.24 -17.19 -17.29 -17.31 -17.25 -17.34 -17.32 -17.45 -17.33 -17.46 -17.61 -17.70 -17.60 -17.58 -17.53 -17.54 -17.65 -17.53 -17.53 -17.55 -17.62 -17.57 -17.50 -17.58 -17.54 -17.61 -17.58 -17.58 -17.60 -17.51 -17.42 -17.45 -17.34 -17.30 -17.30 -17.38 -17.40 -17.51 -17.55 -17.54 -17.61 -17.66 -17.79 -17.63 -17.50 -17.33 -17.39 -17.27 -17.31 -17.38 -17.37 -17.35 -17.38 -17.36 -17.53 -17.50 -17.51 -17.60 -17.76 -17.65 -17.58 -17.24 -17.13 -17.21 -17.43 -17.42 -17.34 -17.14 -17.17 -17.50 -17.70 -17.87 -18.11 -18.18 -18.04 -18.06 -18.23 -18.36 -18.46 -18.46 -18.65 -18.50 -18.13 -17.56 -17.98 -17.80 -17.61 -17.39 -17.47 -17.30 -17.37 -17.31 -17.22 -17.26 -17.10 -17.22 -17.17 -17.34 -17.21 -17.36 -17.25 -17.11 -17.26 -17.27 -17.26 -17.46 -17.55 -17.57 -17.55 -17.60 -17.60 -17.63 -17.62 -17.57 -17.40 -17.50 -17.38 -17.45 -17.47 -17.47 -17.55 -17.62 -17.64 -17.57 -17.55 -17.46 -17.39 -17.37 -17.24 -17.28 -17.23 -17.22 -17.32 -17.40 -17.61 -17.43 -17.55 -17.53 -17.64 -17.64 -17.45 -17.44 -17.40 -17.31 -17.19 -17.41 -17.38 -17.40 -17.44 -17.26 -17.35 -17.50 -17.49 -17.61 -17.62 -17.76 -17.60 -17.35 -17.14 -17.16 -17.30 -17.26 -17.34 -17.25 -17.27 -17.50 -17.75 -17.89 -18.03 -18.10 -18.10 -18.08 -18.15 -18.43 -18.53 -18.47 -18.57 -18.53 -18.07 -17.62 -17.99 -17.90 -17.68 -17.46 -17.44 -17.34 -17.48 -17.42 -17.35 -17.33 -17.17 -17.25 -17.26 -17.27 -17.29 -17.33 -17.28 -17.09 -17.29 -17.37 -17.24 -17.34 -17.52 -17.53 -17.45 -17.36 -17.38 -17.47 -17.57 -17.60 -17.61 -17.41 -17.35 -17.40 -17.45 -17.54 -17.62 -17.55 -17.63 -17.55 -17.49 -17.48 -17.27 -17.44 -17.35 -17.12 -17.18 -17.02 -17.17 -17.28 -17.35 -17.38 -17.50 -17.54 -17.51 -17.66 -17.62 -17.62 -17.49 -17.37 -17.41 -17.44 -17.43 -17.51 -17.45 -17.31 -17.25 -17.39 -17.55 -17.66 -17.72 -17.66 -17.58 -17.38 -17.28 -17.22 -17.27 -17.18 -17.37 -17.33 -17.38 -17.63 -17.77 -17.98 -17.96 -17.95 -18.04 -18.11 -18.23 -18.39 -18.58 -18.50 -18.51 -18.44 -17.98 -17.57 -17.95 -17.78 -17.62 -17.33 -17.32 -17.50 -17.53 -17.52 -17.26 -17.26 -17.19 -17.12 -17.19 -17.43 -17.40 -17.30 -17.32 -17.11 -17.22 -17.36 -17.24 -17.39 -17.49 -17.61 -17.44 -17.48 -17.44 -17.52 -17.63 -17.61 -17.59 -17.47 -17.35 -17.40 -17.47 -17.45 -17.53 -17.61 -17.59 -17.48 -17.48 -17.40 -17.30 -17.23 -17.18 -17.11 -17.09 -16.97 -17.22 -17.30 -17.40 -17.43 -17.59 -17.56 -17.57 -17.59 -17.57 -17.64 -17.55 -17.35 -17.61 -17.54 -17.51 -17.65 -17.45 -17.36 -17.36 -17.39 -17.44 -17.60 -17.63 -17.65 -17.65 -17.43 -17.33 -17.29 -17.26 -17.20 -17.38 -17.35 -17.40 -17.74 -17.88 -17.98 -17.94 -17.96 -18.07 -18.20 -18.11 -18.38 -18.54 -18.49 -18.52 -18.33 -17.87 -17.50 -17.95 -17.71 -17.67 -17.36 -17.33 -17.45 -17.42 -17.43 -17.27 -17.14 -17.07 -17.13 -17.24 -17.40 -17.36 -17.28 -17.24 -17.12 -17.33 -17.31 -17.22 -17.41 -17.36 -17.40 -17.45 -17.36 -17.46 -17.54 -17.57 -17.60 -17.49 -17.64 -17.38 -17.42 -17.48 -17.75 -17.74 -17.64 -17.69 -17.57 -17.48 -17.45 -17.38 -17.32 -17.17 -17.09 -17.03 -17.01 -17.07 -17.18 -17.30 -17.47 -17.46 -17.42 -17.54 -17.58 -17.51 -17.56 -17.46 -17.45 -17.67 -17.68 -17.66 -17.70 -17.61 -17.62 -17.51 -17.38 -17.48 -17.52 -17.52 -17.56 -17.60 -17.42 -17.36 -17.42 -17.22 -17.31 -17.41 -17.37 -17.41 -17.74 -18.02 -18.10 -18.07 -17.98 -18.09 -18.12 -18.10 -18.31 -18.53 -18.54 -18.46 -18.28 -17.85 -17.48 -17.88 -17.75 -17.70 -17.49 -17.48 -17.49 -17.48 -17.43 -17.31 -17.09 -17.07 -17.22 -17.27 -17.36 -17.35 -17.19 -17.32 -17.31 -17.34 -17.29 -17.27 -17.52 -17.49 -17.40 -17.36 -17.32 -17.45 -17.59 -17.62 -17.70 -17.63 -17.58 -17.60 -17.55 -17.57 -17.78 -17.71 -17.78 -17.71 -17.64 -17.50 -17.42 -17.53 -17.35 -17.18 -17.15 -17.14 -17.02 -16.91 -17.16 -17.30 -17.38 -17.48 -17.50 -17.68 -17.61 -17.41 -17.48 -17.45 -17.50 -17.60 -17.62 -17.71 -17.67 -17.77 -17.65 -17.47 -17.38 -17.39 -17.42 -17.44 -17.52 -17.49 -17.38 -17.34 -17.51 -17.27 -17.35 -17.65 -17.52 -17.42 -17.70 -17.96 -18.08 -18.10 -18.01 -18.01 -18.06 -18.22 -18.26 -18.39 -18.55 -18.34 -18.22 -17.78 -17.39 -17.80 -17.73 -17.64 -17.52 -17.49 -17.41 -17.42 -17.41 -17.27 -17.16 -17.13 -17.25 -17.25 -17.25 -17.25 -17.18 -17.25 -17.47 -17.26 -17.23 -17.33 -17.42 -17.40 -17.28 -17.34 -17.37 -17.39 -17.52 -17.64 -17.65 -17.55 -17.42 -17.57 -17.69 -17.72 -17.75 -17.83 -17.91 -17.70 -17.48 -17.51 -17.47 -17.26 -17.17 -17.04 -16.93 -16.95 -16.85 -16.85 -17.02 -17.25 -17.33 -17.32 -17.39 -17.55 -17.44 -17.34 -17.27 -17.50 -17.52 -17.53 -17.50 -17.57 -17.63 -17.61 -17.61 -17.48 -17.39 -17.29 -17.25 -17.31 -17.45 -17.53 -17.31 -17.23 -17.32 -17.27 -17.34 -17.44 -17.55 -17.49 -17.73 -18.03 -18.16 -18.08 -17.99 -18.03 -18.02 -18.31 -18.39 -18.34 -18.50 -18.35 -18.17 -17.78 -17.43 -17.68 -17.78 -17.69 -17.53 -17.48 -17.40 -17.45 -17.46 -17.22 -17.20 -17.24 -17.19 -17.29 -17.21 -17.21 -17.30 -17.19 -17.40 -17.27 -17.31 -17.32 -17.45 -17.37 -17.34 -17.31 -17.42 -17.44 -17.45 -17.64 -17.81 -17.73 -17.55 -17.68 -17.67 -17.61 -17.77 -17.87 -17.90 -17.70 -17.54 -17.47 -17.39 -17.24 -17.00 -16.97 -16.93 -16.99 -16.70 -16.82 -17.02 -17.13 -17.32 -17.33 -17.41 -17.47 -17.64 -17.42 -17.36 -17.44 -17.39 -17.51 -17.56 -17.66 -17.64 -17.61 -17.69 -17.50 -17.42 -17.49 -17.38 -17.38 -17.37 -17.44 -17.33 -17.34 -17.14 -17.18 -17.22 -17.39 -17.47 -17.66 -17.72 -18.00 -18.08 -18.12 -17.98 -18.05 -18.06 -18.27 -18.35 -18.43 -18.50 -18.35 -18.09 -17.78 -17.56 -17.69 -17.79 -17.70 -17.61 -17.47 -17.52 -17.50 -17.41 -17.27 -17.41 -17.42 -17.32 -17.37 -17.35 -17.20 -17.34 -17.25 -17.38 -17.42 -17.38 -17.32 -17.27 -17.31 -17.34 -17.37 -17.47 -17.48 -17.55 -17.72 -17.85 -17.82 -17.81 -17.73 -17.69 -17.67 -17.62 -17.83 -17.85 -17.72 -17.45 -17.42 -17.38 -17.19 -17.10 -16.88 -16.91 -16.88 -16.76 -16.76 -16.88 -17.09 -17.19 -17.23 -17.23 -17.47 -17.71 -17.59 -17.49 -17.39 -17.58 -17.63 -17.70 -17.69 -17.80 -17.73 -17.71 -17.56 -17.42 -17.52 -17.49 -17.41 -17.40 -17.31 -17.32 -17.27 -17.18 -17.17 -17.28 -17.36 -17.45 -17.64 -17.82 -17.94 -18.00 -18.07 -18.06 -18.06 -18.19 -18.29 -18.45 -18.60 -18.53 -18.32 -18.03 -17.81 -17.70 -17.75 -17.81 -17.71 -17.74 -17.56 -17.66 -17.57 -17.46 -17.26 -17.38 -17.35 -17.38 -17.36 -17.27 -17.22 -17.39 -17.39 -17.41 -17.40 -17.48 -17.36 -17.23 -17.35 -17.42 -17.46 -17.55 -17.53 -17.53 -17.71 -17.81 -17.78 -17.67 -17.78 -17.60 -17.47 -17.53 -17.70 -17.76 -17.56 -17.44 -17.26 -17.25 -17.12 -16.92 -16.95 -16.91 -16.89 -16.86 -16.80 -16.85 -17.04 -17.16 -17.14 -17.17 -17.42 -17.53 -17.56 -17.56 -17.60 -17.70 -17.72 -17.84 -17.63 -17.66 -17.74 -17.57 -17.61 -17.48 -17.47 -17.49 -17.57 -17.38 -17.33 -17.34 -17.33 -17.25 -17.27 -17.26 -17.31 -17.46 -17.67 -17.81 -17.99 -17.95 -18.03 -18.06 -18.11 -18.16 -18.14 -18.50 -18.71 -18.48 -18.32 -17.96 -17.76 -17.74 -17.69 -17.81 -17.78 -17.76 -17.58 -17.65 -17.63 -17.39 -17.21 -17.28 -17.42 -17.47 -17.45 -17.34 -17.29 -17.34 -17.53 -17.54 -17.34 -17.35 -17.30 -17.22 -17.37 -17.48 -17.54 -17.58 -17.59 -17.57 -17.80 -17.85 -17.66 -17.65 -17.65 -17.58 -17.39 -17.51 -17.61 -17.86 -17.71 -17.57 -17.25 -17.13 -17.11 -17.14 -16.96 -16.81 -16.88 -16.88 -16.84 -16.90 -16.97 -17.07 -17.06 -17.25 -17.38 -17.58 -17.55 -17.59 -17.61 -17.75 -17.73 -17.69 -17.53 -17.64 