# vtk DataFile Version 2.0
VTK from Matlab
ASCII
DATASET STRUCTURED_GRID
DIMENSIONS 70 40 6
POINTS 16800 float
-48.00 -33.00 -15.00 -44.00 -33.00 -15.00 -40.00 -33.00 -15.00 -36.00 -33.00 -15.00 -32.00 -33.00 -15.00 -29.50 -33.00 -15.00 -28.50 -33.00 -15.00 -27.50 -33.00 -15.00 -26.50 -33.00 -15.00 -25.50 -33.00 -15.00 -24.50 -33.00 -15.00 -23.50 -33.00 -15.00 -22.50 -33.00 -15.00 -21.50 -33.00 -15.00 -20.50 -33.00 -15.00 -19.50 -33.00 -15.00 -18.50 -33.00 -15.00 -17.50 -33.00 -15.00 -16.50 -33.00 -15.00 -15.50 -33.00 -15.00 -14.50 -33.00 -15.00 -13.50 -33.00 -15.00 -12.50 -33.00 -15.00 -11.50 -33.00 -15.00 -10.50 -33.00 -15.00 -9.50 -33.00 -15.00 -8.50 -33.00 -15.00 -7.50 -33.00 -15.00 -6.50 -33.00 -15.00 -5.50 -33.00 -15.00 -4.50 -33.00 -15.00 -3.50 -33.00 -15.00 -2.50 -33.00 -15.00 -1.50 -33.00 -15.00 -0.50 -33.00 -15.00 0.50 -33.00 -15.00 1.50 -33.00 -15.00 2.50 -33.00 -15.00 3.50 -33.00 -15.00 4.50 -33.00 -15.00 5.50 -33.00 -15.00 6.50 -33.00 -15.00 7.50 -33.00 -15.00 8.50 -33.00 -15.00 9.50 -33.00 -15.00 10.50 -33.00 -15.00 11.50 -33.00 -15.00 12.50 -33.00 -15.00 13.50 -33.00 -15.00 14.50 -33.00 -15.00 15.50 -33.00 -15.00 16.50 -33.00 -15.00 17.50 -33.00 -15.00 18.50 -33.00 -15.00 19.50 -33.00 -15.00 20.50 -33.00 -15.00 21.50 -33.00 -15.00 22.50 -33.00 -15.00 23.50 -33.00 -15.00 24.50 -33.00 -15.00 25.50 -33.00 -15.00 26.50 -33.00 -15.00 27.50 -33.00 -15.00 28.50 -33.00 -15.00 29.50 -33.00 -15.00 32.00 -33.00 -15.00 36.00 -33.00 -15.00 40.00 -33.00 -15.00 44.00 -33.00 -15.00 48.00 -33.00 -15.00 -48.00 -29.00 -15.00 -44.00 -29.00 -15.00 -40.00 -29.00 -15.00 -36.00 -29.00 -15.00 -32.00 -29.00 -15.00 -29.50 -29.00 -15.00 -28.50 -29.00 -15.00 -27.50 -29.00 -15.00 -26.50 -29.00 -15.00 -25.50 -29.00 -15.00 -24.50 -29.00 -15.00 -23.50 -29.00 -15.00 -22.50 -29.00 -15.00 -21.50 -29.00 -15.00 -20.50 -29.00 -15.00 -19.50 -29.00 -15.00 -18.50 -29.00 -15.00 -17.50 -29.00 -15.00 -16.50 -29.00 -15.00 -15.50 -29.00 -15.00 -14.50 -29.00 -15.00 -13.50 -29.00 -15.00 -12.50 -29.00 -15.00 -11.50 -29.00 -15.00 -10.50 -29.00 -15.00 -9.50 -29.00 -15.00 -8.50 -29.00 -15.00 -7.50 -29.00 -15.00 -6.50 -29.00 -15.00 -5.50 -29.00 -15.00 -4.50 -29.00 -15.00 -3.50 -29.00 -15.00 -2.50 -29.00 -15.00 -1.50 -29.00 -15.00 -0.50 -29.00 -15.00 0.50 -29.00 -15.00 1.50 -29.00 -15.00 2.50 -29.00 -15.00 3.50 -29.00 -15.00 4.50 -29.00 -15.00 5.50 -29.00 -15.00 6.50 -29.00 -15.00 7.50 -29.00 -15.00 8.50 -29.00 -15.00 9.50 -29.00 -15.00 10.50 -29.00 -15.00 11.50 -29.00 -15.00 12.50 -29.00 -15.00 13.50 -29.00 -15.00 14.50 -29.00 -15.00 15.50 -29.00 -15.00 16.50 -29.00 -15.00 17.50 -29.00 -15.00 18.50 -29.00 -15.00 19.50 -29.00 -15.00 20.50 -29.00 -15.00 21.50 -29.00 -15.00 22.50 -29.00 -15.00 23.50 -29.00 -15.00 24.50 -29.00 -15.00 25.50 -29.00 -15.00 26.50 -29.00 -15.00 27.50 -29.00 -15.00 28.50 -29.00 -15.00 29.50 -29.00 -15.00 32.00 -29.00 -15.00 36.00 -29.00 -15.00 40.00 -29.00 -15.00 44.00 -29.00 -15.00 48.00 -29.00 -15.00 -48.00 -25.00 -15.00 -44.00 -25.00 -15.00 -40.00 -25.00 -15.00 -36.00 -25.00 -15.00 -32.00 -25.00 -15.00 -29.50 -25.00 -15.00 -28.50 -25.00 -15.00 -27.50 -25.00 -15.00 -26.50 -25.00 -15.00 -25.50 -25.00 -15.00 -24.50 -25.00 -15.00 -23.50 -25.00 -15.00 -22.50 -25.00 -15.00 -21.50 -25.00 -15.00 -20.50 -25.00 -15.00 -19.50 -25.00 -15.00 -18.50 -25.00 -15.00 -17.50 -25.00 -15.00 -16.50 -25.00 -15.00 -15.50 -25.00 -15.00 -14.50 -25.00 -15.00 -13.50 -25.00 -15.00 -12.50 -25.00 -15.00 -11.50 -25.00 -15.00 -10.50 -25.00 -15.00 -9.50 -25.00 -15.00 -8.50 -25.00 -15.00 -7.50 -25.00 -15.00 -6.50 -25.00 -15.00 -5.50 -25.00 -15.00 -4.50 -25.00 -15.00 -3.50 -25.00 -15.00 -2.50 -25.00 -15.00 -1.50 -25.00 -15.00 -0.50 -25.00 -15.00 0.50 -25.00 -15.00 1.50 -25.00 -15.00 2.50 -25.00 -15.00 3.50 -25.00 -15.00 4.50 -25.00 -15.00 5.50 -25.00 -15.00 6.50 -25.00 -15.00 7.50 -25.00 -15.00 8.50 -25.00 -15.00 9.50 -25.00 -15.00 10.50 -25.00 -15.00 11.50 -25.00 -15.00 12.50 -25.00 -15.00 13.50 -25.00 -15.00 14.50 -25.00 -15.00 15.50 -25.00 -15.00 16.50 -25.00 -15.00 17.50 -25.00 -15.00 18.50 -25.00 -15.00 19.50 -25.00 -15.00 20.50 -25.00 -15.00 21.50 -25.00 -15.00 22.50 -25.00 -15.00 23.50 -25.00 -15.00 24.50 -25.00 -15.00 25.50 -25.00 -15.00 26.50 -25.00 -15.00 27.50 -25.00 -15.00 28.50 -25.00 -15.00 29.50 -25.00 -15.00 32.00 -25.00 -15.00 36.00 -25.00 -15.00 40.00 -25.00 -15.00 44.00 -25.00 -15.00 48.00 -25.00 -15.00 -48.00 -21.00 -15.00 -44.00 -21.00 -15.00 -40.00 -21.00 -15.00 -36.00 -21.00 -15.00 -32.00 -21.00 -15.00 -29.50 -21.00 -15.00 -28.50 -21.00 -15.00 -27.50 -21.00 -15.00 -26.50 -21.00 -15.00 -25.50 -21.00 -15.00 -24.50 -21.00 -15.00 -23.50 -21.00 -15.00 -22.50 -21.00 -15.00 -21.50 -21.00 -15.00 -20.50 -21.00 -15.00 -19.50 -21.00 -15.00 -18.50 -21.00 -15.00 -17.50 -21.00 -15.00 -16.50 -21.00 -15.00 -15.50 -21.00 -15.00 -14.50 -21.00 -15.00 -13.50 -21.00 -15.00 -12.50 -21.00 -15.00 -11.50 -21.00 -15.00 -10.50 -21.00 -15.00 -9.50 -21.00 -15.00 -8.50 -21.00 -15.00 -7.50 -21.00 -15.00 -6.50 -21.00 -15.00 -5.50 -21.00 -15.00 -4.50 -21.00 -15.00 -3.50 -21.00 -15.00 -2.50 -21.00 -15.00 -1.50 -21.00 -15.00 -0.50 -21.00 -15.00 0.50 -21.00 -15.00 1.50 -21.00 -15.00 2.50 -21.00 -15.00 3.50 -21.00 -15.00 4.50 -21.00 -15.00 5.50 -21.00 -15.00 6.50 -21.00 -15.00 7.50 -21.00 -15.00 8.50 -21.00 -15.00 9.50 -21.00 -15.00 10.50 -21.00 -15.00 11.50 -21.00 -15.00 12.50 -21.00 -15.00 13.50 -21.00 -15.00 14.50 -21.00 -15.00 15.50 -21.00 -15.00 16.50 -21.00 -15.00 17.50 -21.00 -15.00 18.50 -21.00 -15.00 19.50 -21.00 -15.00 20.50 -21.00 -15.00 21.50 -21.00 -15.00 22.50 -21.00 -15.00 23.50 -21.00 -15.00 24.50 -21.00 -15.00 25.50 -21.00 -15.00 26.50 -21.00 -15.00 27.50 -21.00 -15.00 28.50 -21.00 -15.00 29.50 -21.00 -15.00 32.00 -21.00 -15.00 36.00 -21.00 -15.00 40.00 -21.00 -15.00 44.00 -21.00 -15.00 48.00 -21.00 -15.00 -48.00 -17.00 -15.00 -44.00 -17.00 -15.00 -40.00 -17.00 -15.00 -36.00 -17.00 -15.00 -32.00 -17.00 -15.00 -29.50 -17.00 -15.00 -28.50 -17.00 -15.00 -27.50 -17.00 -15.00 -26.50 -17.00 -15.00 -25.50 -17.00 -15.00 -24.50 -17.00 -15.00 -23.50 -17.00 -15.00 -22.50 -17.00 -15.00 -21.50 -17.00 -15.00 -20.50 -17.00 -15.00 -19.50 -17.00 -15.00 -18.50 -17.00 -15.00 -17.50 -17.00 -15.00 -16.50 -17.00 -15.00 -15.50 -17.00 -15.00 -14.50 -17.00 -15.00 -13.50 -17.00 -15.00 -12.50 -17.00 -15.00 -11.50 -17.00 -15.00 -10.50 -17.00 -15.00 -9.50 -17.00 -15.00 -8.50 -17.00 -15.00 -7.50 -17.00 -15.00 -6.50 -17.00 -15.00 -5.50 -17.00 -15.00 -4.50 -17.00 -15.00 -3.50 -17.00 -15.00 -2.50 -17.00 -15.00 -1.50 -17.00 -15.00 -0.50 -17.00 -15.00 0.50 -17.00 -15.00 1.50 -17.00 -15.00 2.50 -17.00 -15.00 3.50 -17.00 -15.00 4.50 -17.00 -15.00 5.50 -17.00 -15.00 6.50 -17.00 -15.00 7.50 -17.00 -15.00 8.50 -17.00 -15.00 9.50 -17.00 -15.00 10.50 -17.00 -15.00 11.50 -17.00 -15.00 12.50 -17.00 -15.00 13.50 -17.00 -15.00 14.50 -17.00 -15.00 15.50 -17.00 -15.00 16.50 -17.00 -15.00 17.50 -17.00 -15.00 18.50 -17.00 -15.00 19.50 -17.00 -15.00 20.50 -17.00 -15.00 21.50 -17.00 -15.00 22.50 -17.00 -15.00 23.50 -17.00 -15.00 24.50 -17.00 -15.00 25.50 -17.00 -15.00 26.50 -17.00 -15.00 27.50 -17.00 -15.00 28.50 -17.00 -15.00 29.50 -17.00 -15.00 32.00 -17.00 -15.00 36.00 -17.00 -15.00 40.00 -17.00 -15.00 44.00 -17.00 -15.00 48.00 -17.00 -15.00 -48.00 -14.50 -15.00 -44.00 -14.50 -15.00 -40.00 -14.50 -15.00 -36.00 -14.50 -15.00 -32.00 -14.50 -15.00 -29.50 -14.50 -15.00 -28.50 -14.50 -15.00 -27.50 -14.50 -15.00 -26.50 -14.50 -15.00 -25.50 -14.50 -15.00 -24.50 -14.50 -15.00 -23.50 -14.50 -15.00 -22.50 -14.50 -15.00 -21.50 -14.50 -15.00 -20.50 -14.50 -15.00 -19.50 -14.50 -15.00 -18.50 -14.50 -15.00 -17.50 -14.50 -15.00 -16.50 -14.50 -15.00 -15.50 -14.50 -15.00 -14.50 -14.50 -15.00 -13.50 -14.50 -15.00 -12.50 -14.50 -15.00 -11.50 -14.50 -15.00 -10.50 -14.50 -15.00 -9.50 -14.50 -15.00 -8.50 -14.50 -15.00 -7.50 -14.50 -15.00 -6.50 -14.50 -15.00 -5.50 -14.50 -15.00 -4.50 -14.50 -15.00 -3.50 -14.50 -15.00 -2.50 -14.50 -15.00 -1.50 -14.50 -15.00 -0.50 -14.50 -15.00 0.50 -14.50 -15.00 1.50 -14.50 -15.00 2.50 -14.50 -15.00 3.50 -14.50 -15.00 4.50 -14.50 -15.00 5.50 -14.50 -15.00 6.50 -14.50 -15.00 7.50 -14.50 -15.00 8.50 -14.50 -15.00 9.50 -14.50 -15.00 10.50 -14.50 -15.00 11.50 -14.50 -15.00 12.50 -14.50 -15.00 13.50 -14.50 -15.00 14.50 -14.50 -15.00 15.50 -14.50 -15.00 16.50 -14.50 -15.00 17.50 -14.50 -15.00 18.50 -14.50 -15.00 19.50 -14.50 -15.00 20.50 -14.50 -15.00 21.50 -14.50 -15.00 22.50 -14.50 -15.00 23.50 -14.50 -15.00 24.50 -14.50 -15.00 25.50 -14.50 -15.00 26.50 -14.50 -15.00 27.50 -14.50 -15.00 28.50 -14.50 -15.00 29.50 -14.50 -15.00 32.00 -14.50 -15.00 36.00 -14.50 -15.00 40.00 -14.50 -15.00 44.00 -14.50 -15.00 48.00 -14.50 -15.00 -48.00 -13.50 -15.00 -44.00 -13.50 -15.00 -40.00 -13.50 -15.00 -36.00 -13.50 -15.00 -32.00 -13.50 -15.00 -29.50 -13.50 -15.00 -28.50 -13.50 -15.00 -27.50 -13.50 -15.00 -26.50 -13.50 -15.00 -25.50 -13.50 -15.00 -24.50 -13.50 -15.00 -23.50 -13.50 -15.00 -22.50 -13.50 -15.00 -21.50 -13.50 -15.00 -20.50 -13.50 -15.00 -19.50 -13.50 -15.00 -18.50 -13.50 -15.00 -17.50 -13.50 -15.00 -16.50 -13.50 -15.00 -15.50 -13.50 -15.00 -14.50 -13.50 -15.00 -13.50 -13.50 -15.00 -12.50 -13.50 -15.00 -11.50 -13.50 -15.00 -10.50 -13.50 -15.00 -9.50 -13.50 -15.00 -8.50 -13.50 -15.00 -7.50 -13.50 -15.00 -6.50 -13.50 -15.00 -5.50 -13.50 -15.00 -4.50 -13.50 -15.00 -3.50 -13.50 -15.00 -2.50 -13.50 -15.00 -1.50 -13.50 -15.00 -0.50 -13.50 -15.00 0.50 -13.50 -15.00 1.50 -13.50 -15.00 2.50 -13.50 -15.00 3.50 -13.50 -15.00 4.50 -13.50 -15.00 5.50 -13.50 -15.00 6.50 -13.50 -15.00 7.50 -13.50 -15.00 8.50 -13.50 -15.00 9.50 -13.50 -15.00 10.50 -13.50 -15.00 11.50 -13.50 -15.00 12.50 -13.50 -15.00 13.50 -13.50 -15.00 14.50 -13.50 -15.00 15.50 -13.50 -15.00 16.50 -13.50 -15.00 17.50 -13.50 -15.00 18.50 -13.50 -15.00 19.50 -13.50 -15.00 20.50 -13.50 -15.00 21.50 -13.50 -15.00 22.50 -13.50 -15.00 23.50 -13.50 -15.00 24.50 -13.50 -15.00 25.50 -13.50 -15.00 26.50 -13.50 -15.00 27.50 -13.50 -15.00 28.50 -13.50 -15.00 29.50 -13.50 -15.00 32.00 -13.50 -15.00 36.00 -13.50 -15.00 40.00 -13.50 -15.00 44.00 -13.50 -15.00 48.0
[...]
POINT_DATA 16800
SCALARS data float
LOOKUP_TABLE default
-18.40 -18.56 -18.35 -17.57 -17.63 -17.98 -18.14 -18.46 -18.46 -18.24 -18.26 -18.26 -18.50 -18.85 -19.07 -19.35 -18.89 -18.75 -18.75 -18.76 -18.91 -18.91 -19.03 -19.16 -19.19 -19.06 -18.68 -18.36 -18.21 -17.75 -17.70 -17.70 -17.38 -17.30 -17.39 -17.46 -17.44 -17.29 -17.37 -17.74 -18.12 -18.34 -18.46 -18.42 -18.29 -18.23 -18.41 -18.24 -18.11 -18.02 -17.93 -18.00 -17.90 -17.91 -17.75 -17.86 -17.98 -17.90 -17.84 -17.87 -17.61 -17.25 -17.01 -16.95 -17.18 -17.35 -17.27 -17.78 -17.73 -18.06 -18.46 -18.50 -17.67 -17.28 -17.52 -18.20 -18.13 -18.28 -18.33 -18.27 -18.16 -18.36 -18.46 -18.39 -18.48 -18.82 -18.96 -18.84 -18.68 -18.89 -19.01 -19.16 -19.01 -19.10 -19.15 -19.05 -18.96 -18.20 -18.05 -17.77 -17.63 -17.72 -17.59 -17.51 -17.59 -17.59 -17.50 -17.18 -17.27 -17.42 -17.49 -17.54 -17.86 -18.08 -18.17 -18.31 -18.30 -18.17 -17.87 -17.59 -17.83 -18.04 -18.41 -18.37 -18.25 -18.37 -18.34 -18.41 -18.33 -18.13 -18.06 -18.25 -18.20 -18.08 -17.94 -17.56 -17.61 -17.54 -17.73 -18.13 -18.66 -18.17 -17.13 -17.13 -17.28 -17.81 -18.13 -18.05 -17.62 -17.37 -17.41 -17.56 -17.62 -17.66 -17.76 -17.94 -17.91 -17.90 -18.06 -18.25 -18.48 -18.62 -18.54 -18.49 -18.58 -18.53 -18.49 -18.44 -18.31 -18.33 -18.42 -18.21 -18.22 -18.15 -18.12 -17.99 -17.88 -17.87 -17.68 -17.65 -17.56 -17.33 -17.47 -17.56 -17.42 -17.60 -17.69 -17.79 -17.96 -17.79 -18.07 -18.29 -18.55 -18.78 -18.85 -18.84 -18.68 -18.71 -18.78 -18.80 -18.84 -19.07 -19.12 -19.04 -18.72 -18.20 -18.33 -17.79 -17.75 -18.37 -18.40 -18.01 -17.21 -17.16 -17.16 -17.22 -17.17 -17.24 -17.28 -16.92 -16.83 -17.06 -17.13 -17.01 -16.98 -16.86 -17.06 -17.03 -17.38 -17.69 -17.79 -17.94 -17.79 -17.63 -17.84 -17.98 -18.18 -18.47 -18.72 -18.73 -18.86 -18.85 -19.07 -19.04 -18.92 -18.58 -18.32 -18.34 -18.41 -18.16 -17.69 -17.44 -17.29 -17.17 -17.12 -17.23 -17.27 -17.62 -17.79 -17.75 -17.92 -17.93 -18.05 -17.96 -17.92 -17.97 -18.11 -18.55 -18.84 -19.12 -19.31 -19.52 -19.79 -19.73 -19.55 -18.92 -18.83 -18.18 -18.04 -17.74 -18.24 -18.28 -17.62 -18.15 -17.62 -16.99 -17.08 -17.15 -17.22 -17.11 -16.95 -17.16 -17.28 -17.26 -17.12 -17.00 -16.85 -16.91 -17.39 -17.76 -18.00 -17.99 -17.73 -17.87 -17.99 -17.96 -18.32 -18.70 -18.83 -19.09 -19.21 -19.30 -19.37 -19.42 -19.59 -19.53 -19.32 -19.24 -19.19 -19.14 -18.64 -18.06 -17.64 -17.62 -17.58 -17.92 -17.95 -17.95 -18.20 -18.31 -18.39 -18.38 -18.44 -18.38 -18.50 -18.61 -18.73 -19.03 -18.83 -18.85 -19.41 -19.78 -19.99 -20.02 -19.80 -19.49 -19.48 -18.87 -18.60 -18.06 -17.78 -18.18 -17.79 -18.38 -18.02 -17.49 -17.70 -17.84 -17.37 -17.15 -17.21 -17.23 -17.41 -16.97 -16.85 -16.54 -16.82 -17.02 -17.39 -17.69 -17.73 -17.66 -17.80 -18.16 -18.40 -18.37 -18.70 -18.90 -19.05 -19.27 -19.34 -19.38 -19.73 -19.83 -19.94 -20.05 -20.16 -20.20 -20.10 -19.98 -19.56 -19.10 -18.67 -18.63 -18.55 -18.58 -18.37 -18.50 -18.61 -18.82 -18.93 -18.91 -18.75 -18.61 -18.91 -19.07 -18.86 -19.08 -19.15 -19.25 -19.20 -19.45 -19.61 -19.69 -19.70 -19.81 -19.33 -18.49 -18.71 -17.84 -17.83 -18.09 -17.67 -18.22 -17.95 -17.70 -17.92 -18.05 -17.76 -17.48 -17.38 -17.45 -17.35 -17.09 -16.75 -16.77 -16.99 -17.27 -17.66 -17.96 -17.87 -17.57 -17.74 -18.10 -18.39 -18.59 -18.46 -18.74 -19.02 -19.06 -19.29 -19.37 -19.67 -19.93 -20.07 -20.25 -20.55 -20.47 -20.57 -20.08 -19.85 -19.37 -19.25 -18.84 -18.95 -19.09 -18.72 -18.84 -19.20 -19.09 -18.98 -18.90 -18.79 -19.00 -18.74 -18.98 -18.81 -19.23 -19.36 -19.50 -19.37 -19.31 -19.51 -19.61 -19.52 -19.82 -19.28 -18.49 -18.58 -17.51 -18.05 -18.08 -17.70 -18.31 -18.12 -17.80 -17.80 -18.16 -17.99 -17.77 -17.63 -17.58 -17.63 -17.57 -17.04 -17.08 -17.30 -17.49 -17.67 -17.92 -18.20 -17.94 -17.98 -18.23 -18.24 -18.66 -18.62 -18.79 -18.87 -18.89 -18.99 -19.41 -19.76 -20.23 -20.20 -20.34 -20.68 -20.43 -20.58 -20.25 -20.09 -19.54 -19.42 -18.83 -18.86 -18.95 -18.77 -19.10 -19.36 -19.19 -19.28 -19.00 -18.92 -18.86 -18.99 -18.89 -19.10 -19.24 -19.67 -19.43 -19.47 -19.62 -19.29 -19.14 -19.62 -19.59 -19.02 -18.45 -18.53 -17.45 -18.32 -18.17 -17.91 -18.31 -18.24 -17.90 -17.82 -17.98 -18.25 -18.20 -17.97 -17.61 -17.66 -17.68 -17.44 -17.46 -17.58 -17.77 -17.97 -18.32 -18.23 -17.73 -17.85 -18.12 -18.42 -18.33 -18.54 -18.91 -18.63 -18.91 -19.06 -19.23 -19.46 -19.78 -20.04 -20.59 -20.65 -20.48 -20.19 -20.29 -20.08 -19.62 -19.31 -19.30 -18.89 -19.01 -18.96 -19.33 -19.58 -19.34 -19.10 -18.83 -18.91 -18.98 -19.14 -19.09 -19.10 -19.39 -19.70 -19.78 -19.89 -19.53 -19.43 -19.30 -19.08 -19.18 -18.84 -18.24 -18.37 -17.50 -18.34 -18.39 -18.19 -18.36 -18.38 -18.07 -17.94 -17.91 -17.91 -18.17 -18.11 -17.82 -18.05 -17.80 -17.89 -17.95 -17.66 -17.83 -17.94 -18.13 -18.29 -18.14 -17.78 -17.92 -18.25 -18.17 -18.37 -18.54 -18.57 -18.80 -18.82 -19.07 -19.25 -19.56 -19.96 -20.38 -20.55 -20.36 -20.00 -19.95 -20.02 -19.89 -19.50 -19.16 -19.03 -19.15 -19.33 -19.42 -19.27 -18.98 -18.82 -18.68 -18.78 -18.95 -19.25 -19.00 -19.10 -19.39 -19.74 -20.05 -19.82 -19.48 -19.06 -18.90 -18.75 -18.98 -18.77 -18.17 -18.28 -17.50 -18.30 -18.75 -18.46 -18.45 -18.54 -18.31 -18.02 -17.96 -17.97 -18.19 -18.26 -18.17 -17.98 -18.03 -18.10 -17.98 -17.86 -18.09 -18.02 -17.91 -17.98 -17.84 -18.21 -18.13 -18.18 -18.42 -18.50 -18.44 -18.44 -18.48 -18.71 -18.89 -19.39 -19.35 -19.81 -20.26 -20.34 -20.11 -20.08 -19.86 -20.03 -19.68 -19.57 -19.22 -19.16 -19.37 -19.56 -19.61 -19.40 -19.20 -18.90 -18.94 -18.99 -19.04 -18.89 -18.95 -18.87 -19.17 -19.54 -19.56 -19.75 -19.17 -18.79 -18.55 -18.66 -18.82 -18.84 -18.22 -18.17 -17.67 -18.31 -18.93 -18.64 -18.44 -18.64 -18.21 -18.48 -18.16 -18.31 -18.36 -18.44 -18.38 -18.43 -18.31 -18.17 -18.28 -18.13 -18.00 -18.10 -18.04 -17.82 -17.97 -18.11 -18.22 -18.49 -18.67 -18.71 -18.67 -18.14 -18.30 -18.45 -18.55 -19.01 -19.35 -19.41 -19.83 -19.97 -19.91 -19.92 -19.95 -19.86 -19.69 -19.59 -19.46 -19.38 -19.36 -19.45 -19.41 -19.28 -19.27 -19.31 -19.21 -18.99 -19.07 -18.67 -18.67 -18.55 -18.75 -19.25 -19.28 -19.22 -18.78 -18.28 -18.23 -18.54 -18.65 -18.95 -18.60 -18.13 -17.82 -18.38 -18.64 -18.74 -18.51 -18.54 -18.42 -18.40 -18.42 -18.59 -18.35 -18.63 -18.44 -18.67 -18.71 -18.58 -18.34 -18.08 -17.99 -18.10 -17.87 -17.93 -18.10 -18.25 -18.68 -18.51 -18.72 -18.87 -18.56 -18.41 -18.29 -18.40 -18.58 -19.03 -19.56 -19.66 -19.94 -19.84 -19.80 -19.95 -19.89 -19.59 -19.78 -19.71 -19.62 -19.51 -19.71 -19.37 -19.36 -19.46 -19.40 -19.47 -19.26 -18.76 -18.74 -18.72 -18.64 -18.44 -18.42 -18.78 -18.78 -18.77 -18.52 -18.41 -18.36 -18.52 -18.41 -18.92 -18.70 -18.00 -17.96 -18.65 -18.30 -18.63 -18.48 -18.60 -18.73 -18.41 -18.48 -18.58 -18.63 -18.51 -18.69 -18.89 -18.94 -19.09 -18.47 -18.19 -18.35 -18.50 -18.37 -17.90 -18.18 -18.35 -18.84 -18.97 -18.87 -18.96 -18.59 -18.44 -18.65 -18.67 -18.94 -19.25 -19.97 -20.06 -19.69 -19.38 -19.55 -19.81 -19.78 -19.44 -19.34 -19.41 -19.12 -19.24 -19.62 -19.60 -19.60 -19.68 -19.50 -19.39 -19.30 -18.88 -18.87 -18.64 -18.63 -18.31 -18.42 -18.32 -18.41 -18.39 -18.32 -18.38 -18.22 -18.37 -18.25 -18.76 -18.89 -18.10 -17.63 -18.80 -18.01 -18.59 -18.45 -18.69 -19.01 -18.94 -18.71 -18.38 -18.33 -18.45 -18.62 -18.90 -18.88 -18.96 -18.51 -18.43 -18.27 -18.45 -18.41 -18.01 -18.27 -18.36 -18.70 -18.96 -18.80 -18.88 -18.73 -18.73 -18.95 -18.93 -19.22 -19.55 -19.93 -19.84 -19.46 -19.19 -19.10 -19.43 -19.07 -19.20 -18.90 -19.23 -19.17 -19.39 -19.68 -19.76 -19.81 -19.56 -19.55 -19.26 -19.23 -18.80 -18.83 -18.72 -18.62 -18.32 -18.28 -18.29 -18.23 -18.29 -18.30 -18.30 -18.34 -18.34 -18.16 -18.52 -18.87 -18.14 -17.37 -18.94 -18.10 -18.46 -18.44 -18.69 -18.91 -18.96 -18.27 -18.04 -17.93 -18.11 -18.22 -18.48 -18.59 -18.73 -18.76 -18.68 -18.59 -18.57 -18.65 -18.51 -18.46 -18.69 -18.68 -18.73 -18.68 -18.89 -18.88 -18.45 -18.77 -19.08 -19.45 -19.48 -19.81 -19.58 -19.08 -19.10 -18.90 -18.92 -19.03 -18.85 -18.81 -19.33 -19.29 -19.60 -19.38 -19.46 -19.40 -19.64 -19.34 -19.29 -19.30 -18.78 -18.67 -18.67 -18.40 -18.46 -18.21 -18.17 -18.03 -18.14 -18.50 -18.40 -18.25 -18.32 -18.10 -18.69 -18.74 -18.08 -16.94 -18.84 -18.35 -18.71 -18.53 -18.84 -18.79 -18.76 -18.35 -18.17 -18.16 -17.80 -18.17 -18.10 -18.15 -18.46 -18.76 -18.68 -18.53 -18.78 -18.37 -18.41 -18.36 -18.49 -18.68 -18.58 -18.76 -18.71 -18.53 -18.60 -18.78 -19.01 -19.27 -19.67 -19.72 -19.28 -19.13 -18.85 -19.19 -18.78 -18.75 -18.76 -18.83 -19.36 -19.34 -19.16 -19.11 -19.28 -19.35 -19.42 -19.53 -19.28 -19.29 -18.88 -18.48 -18.85 -18.44 -18.23 -18.19 -18.10 -18.00 -18.14 -18.44 -18.49 -18.69 -18.40 -18.23 -18.64 -18.54 -17.72 -16.62 -18.80 -18.60 -18.95 -18.47 -19.00 -18.81 -18.33 -18.35 -18.38 -18.11 -18.17 -18.08 -18.16 -18.38 -18.35 -18.31 -18.52 -18.63 -18.43 -18.54 -18.40 -18.26 -18.45 -18.27 -18.57 -18.90 -18.67 -18.88 -18.78 -18.81 -18.93 -19.45 -19.52 -19.45 -19.16 -19.07 -19.10 -19.17 -19.00 -19.06 -18.76 -18.78 -18.84 -19.06 -18.97 -19.15 -19.27 -19.47 -19.42 -19.39 -19.18 -19.02 -18.96 -18.67 -18.80 -18.83 -18.73 -18.43 -18.23 -18.35 -18.11 -18.69 -18.58 -18.62 -18.85 -18.24 -18.48 -18.45 -17.51 -16.57 -18.64 -18.84 -19.07 -18.52 -19.11 -18.90 -18.48 -18.53 -18.64 -18.50 -18.33 -18.24 -18.34 -18.36 -18.27 -18.46 -18.42 -18.44 -18.45 -18.43 -18.18 -18.29 -18.12 -18.15 -18.68 -18.54 -18.93 -18.62 -18.93 -18.73 -18.71 -18.88 -19.10 -19.32 -19.28 -19.12 -19.17 -19.49 -19.29 -19.34 -19.16 -18.93 -18.88 -19.07 -19.11 -19.22 -19.10 -19.21 -19.32 -18.90 -19.00 -19.11 -19.02 -19.16 -18.79 -19.00 -18.79 -18.60 -18.31 -18.44 -18.60 -18.67 -18.59 -18.46 -18.48 -17.96 -18.17 -18.05 -17.31 -16.47 -18.95 -19.12 -18.95 -18.72 -19.18 -19.01 -18.84 -18.55 -18.40 -18.33 -18.44 -18.26 -18.06 -17.82 -17.85 -18.20 -18.27 -18.52 -18.59 -18.19 -18.20 -18.10 -18.03 -18.00 -18.18 -18.23 -18.49 -18.35 -18.76 -18.82 -18.47 -18.45 -18.62 -18.65 -18.95 -19.06 -19.09 -19.23 -19.29 -19.13 -19.17 -19.06 -19.08 -19.44 -18.93 -18.63 -18.78 -18.80 -19.00 -19.06 -19.06 -19.10 -19.26 -19.33 -19.18 -19.07 -18.64 -18.44 -18.39 -18.31 -18.33 -18.40 -18.49 -18.38 -18.19 -17.58 -17.94 -17.82 -17.44 -16.55 -19.10 -19.28 -18.93 -19.16 -19.47 -19.00 -18.93 -18.69 -18.36 -18.33 -18.28 -18.18 -18.14 -18.02 -17.75 -18.21 -18.36 -18.28 -18.34 -18.52 -18.37 -18.21 -18.24 -18.20 -18.25 -18.26 -18.29 -18.35 -18.73 -18.96 -18.51 -18.44 -18.46 -18.56 -18.76 -18.95 -18.98 -19.28 -19.29 -19.02 -18.95 -18.62 -19.14 -19.02 -18.98 -18.63 -18.93 -18.80 -19.30 -19.35 -19.40 -19.21 -19.42 -19.43 -19.29 -19.25 -18.83 -18.25 -18.48 -18.09 -18.00 -18.14 -18.17 -18.40 -18.27 -17.42 -17.50 -17.69 -17.53 -16.49 -19.42 -19.28 -19.20 -19.62 -19.38 -18.79 -18.55 -18.43 -18.04 -17.95 -18.05 -18.25 -18.09 -17.86 -17.77 -17.84 -18.09 -18.26 -18.28 -18.13 -18.14 -17.96 -18.20 -18.12 -18.28 -18.29 -18.41 -18.39 -18.84 -18.69 -18.98 -18.52 -18.33 -18.55 -18.66 -18.59 -18.72 -19.12 -19.17 -19.16 -18.99 -18.83 -18.94 -18.98 -18.53 -18.54 -19.04 -19.07 -19.34 -19.48 -19.71 -19.46 -19.66 -19.59 -19.62 -19.06 -18.62 -18.38 -18.25 -18.32 -18.08 -18.49 -18.31 -18.28 -18.36 -17.48 -17.45 -17.72 -17.63 -16.74 -19.37 -19.53 -19.36 -19.80 -19.31 -18.72 -18.39 -18.19 -17.89 -17.93 -18.03 -18.06 -18.03 -17.82 -17.57 -17.56 -18.09 -18.08 -17.85 -17.88 -17.87 -17.88 -18.25 -18.32 -18.20 -18.46 -18.43 -18.48 -18.67 -18.78 -18.67 -18.47 -18.16 -18.16 -18.03 -18.53 -18.69 -18.95 -19.24 -19.53 -19.31 -19.00 -18.93 -19.05 -18.84 -18.61 -18.90 -19.19 -19.52 -19.70 -19.55 -19.45 -19.28 -19.45 -19.53 -19.09 -19.00 -18.55 -18.30 -18.16 -18.32 -18.43 -18.40 -18.50 -18.18 -17.45 -17.47 -17.91 -17.83 -17.01 -19.41 -19.86 -19.58 -19.73 -19.14 -18.54 -18.13 -17.95 -17.68 -17.65 -17.66 -17.96 -17.83 -17.90 -17.56 -17.82 -17.95 -17.90 -17.70 -17.46 -17.48 -17.83 -18.20 -18.35 -18.35 -18.76 -18.85 -18.76 -19.05 -19.04 -18.70 -18.50 -18.13 -18.10 -18.41 -18.58 -18.80 -18.87 -19.29 -19.39 -19.08 -18.85 -18.82 -18.89 -18.93 -18.85 -18.89 -19.20 -19.31 -19.82 -19.64 -19.49 -19.10 -19.37 -19.22 -18.94 -18.82 -18.34 -18.59 -18.50 -18.71 -18.77 -18.50 -18.39 -18.13 -17.49 -17.80 -17.81 -18.01 -17.40 -19.37 -19.92 -19.53 -19.48 -19.04 -18.55 -18.00 -17.66 -17.66 -17.49 -17.57 -17.77 -17.78 -17.93 -17.66 -17.60 -17.55 -17.64 -17.78 -17.77 -17.53 -17.81 -18.11 -18.29 -18.71 -18.82 -18.94 -18.97 -18.90 -18.85 -18.73 -18.45 -18.24 -18.29 -18.78 -18.81 -18.85 -18.95 -19.30 -19.24 -19.13 -19.04 -18.98 -19.06 -19.32 -19.34 -19.36 -19.21 -19.39 -19.84 -19.70 -19.32 -18.98 -19.05 -18.99 -18.61 -18.41 -18.43 -18.62 -18.40 -18.62 -18.87 -18.39 -18.28 -18.17 -17.70 -17.83 -17.77 -17.77 -17.93 -19.19 -20.07 -19.77 -19.25 -18.75 -18.34 -18.13 -17.90 -17.80 -17.68 -17.61 -17.84 -17.82 -17.91 -17.87 -17.62 -17.64 -17.82 -17.84 -17.81 -17.57 -17.93 -18.33 -18.70 -19.04 -19.01 -19.20 -19.03 -18.95 -18.45 -18.36 -18.47 -18.71 -18.45 -18.58 -18.86 -18.88 -18.81 -19.03 -19.35 -19.10 -19.02 -19.34 -19.60 -19.41 -19.60 -19.61 -19.49 -19.56 -19.78 -19.68 -19.28 -19.04 -18.86 -18.77 -18.37 -18.35 -18.24 -18.80 -18.78 -18.57 -18.73 -18.38 -18.37 -18.27 -18.08 -17.80 -17.84 -17.70 -18.15 -19.36 -20.18 -19.85 -19.14 -18.47 -18.29 -18.14 -17.85 -17.89 -17.75 -17.78 -17.92 -17.77 -18.21 -18.12 -18.08 -17.76 -17.93 -17.91 -17.85 -17.85 -17.95 -18.17 -19.01 -19.44 -19.33 -19.57 -19.00 -18.87 -18.57 -18.26 -18.55 -18.58 -18.99 -18.90 -18.95 -18.88 -19.05 -19.08 -19.02 -18.83 -18.97 -19.41 -19.46 -19.33 -19.58 -19.39 -19.62 -20.02 -19.69 -19.68 -19.25 -18.86 -18.90 -18.71 -18.66 -18.58 -18.54 -18.80 -18.68 -18.22 -18.40 -18.57 -18.56 -18.52 -18.23 -17.78 -17.71 -17.57 -18.30 -19.40 -20.32 -19.89 -19.02 -18.28 -18.23 -18.27 -17.70 -17.70 -17.85 -17.78 -17.79 -17.85 -18.07 -18.48 -18.34 -18.03 -18.06 -18.06 -18.09 -17.87 -17.98 -18.61 -19.00 -19.29 -19.56 -19.45 -19.05 -18.91 -18.56 -18.42 -18.66 -18.80 -18.92 -19.07 -19.26 -19.03 -19.40 -18.84 -19.01 -18.86 -18.90 -19.15 -19.19 -19.39 -19.34 -19.63 -19.59 -19.60 -19.56 -19.38 -19.09 -18.75 -18.66 -18.63 -18.77 -18.65 -18.72 -18.99 -18.40 -18.09 -18.18 -18.36 -18.57 -18.27 -18.26 -17.90 -17.80 -17.46 -18.19 -19.30 -20.30 -19.78 -19.29 -18.28 -18.19 -17.89 -17.40 -17.56 -17.81 -17.80 -17.93 -18.34 -18.33 -18.62 -18.35 -17.98 -18.42 -18.19 -18.12 -17.91 -17.98 -18.71 -18.98 -19.27 -19.21 -19.26 -18.86 -19.12 -18.84 -18.74 -18.64 -18.67 -18.79 -19.33 -19.37 -19.41 -19.37 -19.29 -19.18 -19.09 -18.92 -18.75 -18.97 -19.05 -19.22 -19.19 -19.32 -19.38 -19.28 -19.23 -19.27 -19.01 -18.61 -18.64 -18.89 -18.77 -18.60 -18.46 -18.04 -17.94 -18.21 -18.47 -18.55 -18.15 -18.35 -18.23 -17.90 -17.56 -18.14 -19.08 -20.14 -20.08 -19.50 -18.50 -18.05 -17.65 -17.11 -17.23 -17.70 -17.79 -18.31 -18.59 -18.84 -18.68 -18.53 -18.15 -18.46 -18.36 -18.22 -18.37 -18.50 -18.71 -18.94 -19.26 -19.09 -19.17 -19.00 -18.78 -18.85 -18.77 -18.76 -18.47 -18.91 -19.35 -19.12 -19.31 -19.32 -19.37 -19.42 -19.07 -18.92 -18.61 -18.56 -18.72 -18.86 -19.05 -19.33 -19.45 -19.50 -19.52 -19.16 -18.91 -18.74 -19.06 -18.94 -18.75 -18.53 -18.29 -17.86 -18.21 -18.21 -18.60 -18.51 -18.11 -18.26 -18.61 -17.88 -17.92 -18.31 -18.92 -20.01 -20.37 -19.67 -18.63 -18.06 -17.52 -17.25 -17.22 -17.49 -17.86 -18.30 -18.79 -18.93 -18.70 -18.27 -18.20 -18.33 -18.48 -18.63 -18.69 -18.50 -18.59 -18.85 -19.43 -18.98 -18.84 -18.81 -18.53 -18.50 -18.56 -18.74 -18.81 -19.15 -19.20 -18.99 -19.02 -19.11 -19.32 -19.50 -19.18 -18.84 -18.77 -18.62 -18.55 -18.51 -18.76 -19.18 -19.34 -19.47 -19.26 -19.05 -18.92 -19.00 -18.77 -18.94 -18.97 -18.62 -18.45 -18.11 -17.95 -17.74 -18.11 -18.16 -18.22 -18.10 -18.37 -17.80 -18.13 -18.35 -18.84 -19.88 -20.18 -19.89 -18.89 -17.93 -17.79 -17.43 -17.46 -17.53 -17.86 -18.30 -18.79 -19.02 -18.75 -18.38 -18.30 -18.39 -18.72 -18.89 -19.01 -18.66 -18.41 -18.86 -19.19 -18.96 -18.70 -18.36 -18.40 -18.33 -18.63 -18.67 -18.92 -19.04 -19.04 -18.88 -18.88 -18.91 -19.33 -19.27 -19.12 -19.02 -18.91 -18.52 -18.55 -18.43 -18.72 -19.03 -19.09 -19.02 -19.05 -18.84 -18.89 -19.00 -18.89 -18.89 -18.86 -18.70 -18.66 -18.18 -17.90 -17.89 -17.79 -17.85 -17.85 -18.01 -18.10 -18.08 -18.33 -18.23 -18.89 -19.95 -20.08 -19.91 -18.70 -18.18 -18.09 -17.80 -17.54 -17.61 -18.01 -18.30 -18.92 -19.10 -18.88 -18.56 -18.32 -18.70 -18.93 -18.91 -19.02 -18.76 -18.56 -18.62 -18.86 -18.77 -18.22 -18.42 -18.68 -18.66 -18.88 -18.99 -19.18 -19.05 -18.99 -19.12 -18.98 -19.60 -19.62 -19.34 -18.91 -18.81 -18.77 -18.40 -18.19 -18.41 -18.83 -18.71 -19.14 -18.98 -18.82 -18.69 -18.67 -18.61 -18.80 -18.60 -18.58 -18.61 -18.35 -18.20 -17.97 -17.89 -17.74 -17.73 -17.49 -17.96 -18.07 -18.40 -18.32 -18.17 -18.89 -19.79 -20.06 -19.76 -18.65 -18.22 -17.98 -17.96 -17.94 -17.51 -17.81 -18.19 -18.73 -18.89 -18.91 -18.68 -18.76 -18.81 -18.97 -18.89 -19.04 -19.15 -18.71 -18.44 -18.69 -18.82 -18.65 -18.52 -18.76 -18.82 -19.12 -19.03 -19.15 -19.37 -19.22 -19.16 -19.58 -19.81 -19.56 -19.13 -18.56 -18.38 -18.20 -18.51 -18.44 -18.38 -18.42 -18.63 -18.69 -18.63 -18.83 -18.56 -18.44 -18.51 -18.56 -18.65 -18.46 -18.23 -18.24 -18.13 -17.85 -17.93 -17.69 -17.51 -17.68 -18.15 -18.50 -18.52 -18.33 -18.21 -18.94 -19.84 -19.81 -19.60 -18.80 -18.05 -17.76 -17.53 -17.51 -17.19 -17.72 -18.42 -18.71 -18.72 -18.91 -18.80 -18.90 -18.94 -18.92 -18.54 -18.70 -18.65 -18.61 -18.32 -18.52 -18.67 -18.86 -19.23 -19.19 -19.10 -19.11 -19.07 -19.36 -19.62 -19.30 -19.57 -19.48 -19.47 -19.15 -18.78 -18.66 -18.59 -18.49 -18.46 -18.50 -18.24 -18.43 -18.42 -18.60 -18.67 -18.74 -18.55 -18.19 -18.23 -18.12 -18.23 -18.11 -18.07 -17.90 -17.54 -17.66 -17.92 -17.87 -17.88 -17.99 -18.56 -18.51 -18.58 -18.38 -18.60 -19.37 -19.26 -18.96 -18.61 -18.05 -17.82 -17.85 -17.87 -17.78 -17.71 -17.68 -17.90 -18.08 -18.22 -18.31 -18.11 -18.27 -18.26 -18.25 -18.09 -18.07 -18.32 -18.32 -18.29 -18.44 -18.51 -18.95 -19.39 -19.51 -19.75 -19.85 -19.87 -20.18 -20.21 -20.13 -19.91 -19.88 -19.56 -19.35 -19.01 -18.78 -18.72 -18.73 -18.72 -18.44 -18.21 -18.03 -18.21 -18.43 -18.43 -18.47 -18.46 -18.35 -18.04 -17.82 -17.78 -17.52 -17.50 -17.51 -17.77 -18.13 -18.22 -18.31 -18.30 -18.46 -18.97 -19.05 -18.56 -18.36 -18.57 -19.09 -18.62 -18.18 -18.11 -17.62 -17.43 -17.54 -17.91 -18.14 -18.58 -18.75 -18.64 -18.62 -18.32 -17.98 -17.81 -17.69 -17.63 -17.91 -18.05 -18.18 -18.30 -18.59 -18.86 -18.98 -18.90 -18.98 -19.13 -19.26 -19.55 -19.75 -20.12 -20.47 -20.61 -20.72 -20.82 -20.39 -19.96 -19.83 -19.61 -19.38 -19.09 -18.93 -18.96 -18.96 -18.73 -18.65 -18.66 -18.79 -18.84 -18.81 -18.64 -18.49 -18.41 -18.34 -17.96 -17.86 -17.90 -18.27 -18.34 -18.24 -18.24 -18.13 -18.46 -18.75 -18.89 -18.87 -18.64 -18.45 -18.55 -18.14 -18.07 -17.58 -17.39 -17.09 -17.18 -17.44 -17.87 -18.36 -18.74 -18.85 -19.08 -18.92 -18.64 -18.29 -17.96 -17.73 -17.62 -17.76 -17.92 -17.88 -17.80 -17.77 -17.88 -17.94 -18.19 -18.59 -18.90 -19.22 -19.39 -19.69 -20.11 -20.17 -20.31 -20.49 -20.53 -20.34 -19.99 -19.81 -19.65 -19.49 -19.27 -19.04 -18.84 -18.82 -19.02 -19.19 -19.38 -19.57 -19.81 -19.69 -19.47 -19.22 -19.01 -18.86 -18.75 -18.74 -18.50 -18.58 -18.43 -18.63 -18.70 -18.78 -18.88 -19.18 -19.56 -19.28 -18.66 -17.83 -17.98 -18.12 -18.24 -17.73 -17.32 -17.53 -17.50 -17.24 -17.37 -17.66 -17.78 -18.15 -18.01 -18.08 -18.11 -17.90 -17.60 -17.41 -17.46 -17.31 -17.35 -17.29 -17.02 -16.83 -16.79 -16.97 -17.24 -17.76 -18.11 -18.63 -19.08 -19.40 -19.64 -19.62 -19.88 -20.04 -19.96 -19.94 -19.86 -19.52 -19.24 -18.88 -18.83 -18.51 -18.30 -18.31 -18.34 -18.70 -19.01 -19.25 -19.38 -19.34 -18.99 -18.90 -18.85 -18.80 -18.78 -18.69 -18.76 -18.94 -19.02 -18.99 -19.11 -19.33 -19.02 -18.92 -19.21 -19.03 -18.79 -17.91 -17.92 -18.23 -17.91 -17.98 -17.65 -17.59 -17.40 -17.13 -17.03 -16.97 -17.29 -17.42 -17.35 -17.29 -17.38 -17.36 -17.30 -17.34 -17.16 -17.07 -16.85 -16.62 -16.58 -16.35 -16.49 -16.51 -16.71 -16.94 -17.32 -17.77 -18.08 -18.25 -18.54 -18.58 -18.50 -18.56 -18.46 -18.49 -18.42 -18.39 -18.40 -18.49 -18.51 -18.57 -18.48 -18.40 -18.46 -18.55 -18.77 -18.70 -18.84 -18.89 -18.75 -18.85 -18.79 -19.13 -19.53 -19.81 -19.89 -19.88 -19.92 -19.95 -19.98 -19.79 -19.76 -19.64 -19.32 -18.87 -18.77 -18.48 -18.20 -8.83 -8.54 -8.04 -7.09 -5.89 -5.77 -5.80 -5.70 -5.26 -5.45 -5.86 -5.86 -5.79 -5.70 -6.11 -6.66 -7.22 -7.74 -7.77 -7.36 -6.54 -6.65 -6.66 -6.83 -6.70 -7.00 -6.70 -6.69 -7.13 -7.39 -7.20 -7.57 -7.17 -7.07 -7.06 -6.91 -6.92 -6.82 -6.90 -7.13 -6.95 -6.88 -7.37 -7.71 -7.42 -7.08 -7.33 -7.01 -7.43 -7.46 -7.88 -8.08 -8.21 -8.10 -7.71 -7.70 -7.78 -