# vtk DataFile Version 2.0
VTK from Matlab
ASCII
DATASET STRUCTURED_GRID
DIMENSIONS 70 40 6
POINTS 16800 float
-48.00 -33.00 -15.00 -44.00 -33.00 -15.00 -40.00 -33.00 -15.00 -36.00 -33.00 -15.00 -32.00 -33.00 -15.00 -29.50 -33.00 -15.00 -28.50 -33.00 -15.00 -27.50 -33.00 -15.00 -26.50 -33.00 -15.00 -25.50 -33.00 -15.00 -24.50 -33.00 -15.00 -23.50 -33.00 -15.00 -22.50 -33.00 -15.00 -21.50 -33.00 -15.00 -20.50 -33.00 -15.00 -19.50 -33.00 -15.00 -18.50 -33.00 -15.00 -17.50 -33.00 -15.00 -16.50 -33.00 -15.00 -15.50 -33.00 -15.00 -14.50 -33.00 -15.00 -13.50 -33.00 -15.00 -12.50 -33.00 -15.00 -11.50 -33.00 -15.00 -10.50 -33.00 -15.00 -9.50 -33.00 -15.00 -8.50 -33.00 -15.00 -7.50 -33.00 -15.00 -6.50 -33.00 -15.00 -5.50 -33.00 -15.00 -4.50 -33.00 -15.00 -3.50 -33.00 -15.00 -2.50 -33.00 -15.00 -1.50 -33.00 -15.00 -0.50 -33.00 -15.00 0.50 -33.00 -15.00 1.50 -33.00 -15.00 2.50 -33.00 -15.00 3.50 -33.00 -15.00 4.50 -33.00 -15.00 5.50 -33.00 -15.00 6.50 -33.00 -15.00 7.50 -33.00 -15.00 8.50 -33.00 -15.00 9.50 -33.00 -15.00 10.50 -33.00 -15.00 11.50 -33.00 -15.00 12.50 -33.00 -15.00 13.50 -33.00 -15.00 14.50 -33.00 -15.00 15.50 -33.00 -15.00 16.50 -33.00 -15.00 17.50 -33.00 -15.00 18.50 -33.00 -15.00 19.50 -33.00 -15.00 20.50 -33.00 -15.00 21.50 -33.00 -15.00 22.50 -33.00 -15.00 23.50 -33.00 -15.00 24.50 -33.00 -15.00 25.50 -33.00 -15.00 26.50 -33.00 -15.00 27.50 -33.00 -15.00 28.50 -33.00 -15.00 29.50 -33.00 -15.00 32.00 -33.00 -15.00 36.00 -33.00 -15.00 40.00 -33.00 -15.00 44.00 -33.00 -15.00 48.00 -33.00 -15.00 -48.00 -29.00 -15.00 -44.00 -29.00 -15.00 -40.00 -29.00 -15.00 -36.00 -29.00 -15.00 -32.00 -29.00 -15.00 -29.50 -29.00 -15.00 -28.50 -29.00 -15.00 -27.50 -29.00 -15.00 -26.50 -29.00 -15.00 -25.50 -29.00 -15.00 -24.50 -29.00 -15.00 -23.50 -29.00 -15.00 -22.50 -29.00 -15.00 -21.50 -29.00 -15.00 -20.50 -29.00 -15.00 -19.50 -29.00 -15.00 -18.50 -29.00 -15.00 -17.50 -29.00 -15.00 -16.50 -29.00 -15.00 -15.50 -29.00 -15.00 -14.50 -29.00 -15.00 -13.50 -29.00 -15.00 -12.50 -29.00 -15.00 -11.50 -29.00 -15.00 -10.50 -29.00 -15.00 -9.50 -29.00 -15.00 -8.50 -29.00 -15.00 -7.50 -29.00 -15.00 -6.50 -29.00 -15.00 -5.50 -29.00 -15.00 -4.50 -29.00 -15.00 -3.50 -29.00 -15.00 -2.50 -29.00 -15.00 -1.50 -29.00 -15.00 -0.50 -29.00 -15.00 0.50 -29.00 -15.00 1.50 -29.00 -15.00 2.50 -29.00 -15.00 3.50 -29.00 -15.00 4.50 -29.00 -15.00 5.50 -29.00 -15.00 6.50 -29.00 -15.00 7.50 -29.00 -15.00 8.50 -29.00 -15.00 9.50 -29.00 -15.00 10.50 -29.00 -15.00 11.50 -29.00 -15.00 12.50 -29.00 -15.00 13.50 -29.00 -15.00 14.50 -29.00 -15.00 15.50 -29.00 -15.00 16.50 -29.00 -15.00 17.50 -29.00 -15.00 18.50 -29.00 -15.00 19.50 -29.00 -15.00 20.50 -29.00 -15.00 21.50 -29.00 -15.00 22.50 -29.00 -15.00 23.50 -29.00 -15.00 24.50 -29.00 -15.00 25.50 -29.00 -15.00 26.50 -29.00 -15.00 27.50 -29.00 -15.00 28.50 -29.00 -15.00 29.50 -29.00 -15.00 32.00 -29.00 -15.00 36.00 -29.00 -15.00 40.00 -29.00 -15.00 44.00 -29.00 -15.00 48.00 -29.00 -15.00 -48.00 -25.00 -15.00 -44.00 -25.00 -15.00 -40.00 -25.00 -15.00 -36.00 -25.00 -15.00 -32.00 -25.00 -15.00 -29.50 -25.00 -15.00 -28.50 -25.00 -15.00 -27.50 -25.00 -15.00 -26.50 -25.00 -15.00 -25.50 -25.00 -15.00 -24.50 -25.00 -15.00 -23.50 -25.00 -15.00 -22.50 -25.00 -15.00 -21.50 -25.00 -15.00 -20.50 -25.00 -15.00 -19.50 -25.00 -15.00 -18.50 -25.00 -15.00 -17.50 -25.00 -15.00 -16.50 -25.00 -15.00 -15.50 -25.00 -15.00 -14.50 -25.00 -15.00 -13.50 -25.00 -15.00 -12.50 -25.00 -15.00 -11.50 -25.00 -15.00 -10.50 -25.00 -15.00 -9.50 -25.00 -15.00 -8.50 -25.00 -15.00 -7.50 -25.00 -15.00 -6.50 -25.00 -15.00 -5.50 -25.00 -15.00 -4.50 -25.00 -15.00 -3.50 -25.00 -15.00 -2.50 -25.00 -15.00 -1.50 -25.00 -15.00 -0.50 -25.00 -15.00 0.50 -25.00 -15.00 1.50 -25.00 -15.00 2.50 -25.00 -15.00 3.50 -25.00 -15.00 4.50 -25.00 -15.00 5.50 -25.00 -15.00 6.50 -25.00 -15.00 7.50 -25.00 -15.00 8.50 -25.00 -15.00 9.50 -25.00 -15.00 10.50 -25.00 -15.00 11.50 -25.00 -15.00 12.50 -25.00 -15.00 13.50 -25.00 -15.00 14.50 -25.00 -15.00 15.50 -25.00 -15.00 16.50 -25.00 -15.00 17.50 -25.00 -15.00 18.50 -25.00 -15.00 19.50 -25.00 -15.00 20.50 -25.00 -15.00 21.50 -25.00 -15.00 22.50 -25.00 -15.00 23.50 -25.00 -15.00 24.50 -25.00 -15.00 25.50 -25.00 -15.00 26.50 -25.00 -15.00 27.50 -25.00 -15.00 28.50 -25.00 -15.00 29.50 -25.00 -15.00 32.00 -25.00 -15.00 36.00 -25.00 -15.00 40.00 -25.00 -15.00 44.00 -25.00 -15.00 48.00 -25.00 -15.00 -48.00 -21.00 -15.00 -44.00 -21.00 -15.00 -40.00 -21.00 -15.00 -36.00 -21.00 -15.00 -32.00 -21.00 -15.00 -29.50 -21.00 -15.00 -28.50 -21.00 -15.00 -27.50 -21.00 -15.00 -26.50 -21.00 -15.00 -25.50 -21.00 -15.00 -24.50 -21.00 -15.00 -23.50 -21.00 -15.00 -22.50 -21.00 -15.00 -21.50 -21.00 -15.00 -20.50 -21.00 -15.00 -19.50 -21.00 -15.00 -18.50 -21.00 -15.00 -17.50 -21.00 -15.00 -16.50 -21.00 -15.00 -15.50 -21.00 -15.00 -14.50 -21.00 -15.00 -13.50 -21.00 -15.00 -12.50 -21.00 -15.00 -11.50 -21.00 -15.00 -10.50 -21.00 -15.00 -9.50 -21.00 -15.00 -8.50 -21.00 -15.00 -7.50 -21.00 -15.00 -6.50 -21.00 -15.00 -5.50 -21.00 -15.00 -4.50 -21.00 -15.00 -3.50 -21.00 -15.00 -2.50 -21.00 -15.00 -1.50 -21.00 -15.00 -0.50 -21.00 -15.00 0.50 -21.00 -15.00 1.50 -21.00 -15.00 2.50 -21.00 -15.00 3.50 -21.00 -15.00 4.50 -21.00 -15.00 5.50 -21.00 -15.00 6.50 -21.00 -15.00 7.50 -21.00 -15.00 8.50 -21.00 -15.00 9.50 -21.00 -15.00 10.50 -21.00 -15.00 11.50 -21.00 -15.00 12.50 -21.00 -15.00 13.50 -21.00 -15.00 14.50 -21.00 -15.00 15.50 -21.00 -15.00 16.50 -21.00 -15.00 17.50 -21.00 -15.00 18.50 -21.00 -15.00 19.50 -21.00 -15.00 20.50 -21.00 -15.00 21.50 -21.00 -15.00 22.50 -21.00 -15.00 23.50 -21.00 -15.00 24.50 -21.00 -15.00 25.50 -21.00 -15.00 26.50 -21.00 -15.00 27.50 -21.00 -15.00 28.50 -21.00 -15.00 29.50 -21.00 -15.00 32.00 -21.00 -15.00 36.00 -21.00 -15.00 40.00 -21.00 -15.00 44.00 -21.00 -15.00 48.00 -21.00 -15.00 -48.00 -17.00 -15.00 -44.00 -17.00 -15.00 -40.00 -17.00 -15.00 -36.00 -17.00 -15.00 -32.00 -17.00 -15.00 -29.50 -17.00 -15.00 -28.50 -17.00 -15.00 -27.50 -17.00 -15.00 -26.50 -17.00 -15.00 -25.50 -17.00 -15.00 -24.50 -17.00 -15.00 -23.50 -17.00 -15.00 -22.50 -17.00 -15.00 -21.50 -17.00 -15.00 -20.50 -17.00 -15.00 -19.50 -17.00 -15.00 -18.50 -17.00 -15.00 -17.50 -17.00 -15.00 -16.50 -17.00 -15.00 -15.50 -17.00 -15.00 -14.50 -17.00 -15.00 -13.50 -17.00 -15.00 -12.50 -17.00 -15.00 -11.50 -17.00 -15.00 -10.50 -17.00 -15.00 -9.50 -17.00 -15.00 -8.50 -17.00 -15.00 -7.50 -17.00 -15.00 -6.50 -17.00 -15.00 -5.50 -17.00 -15.00 -4.50 -17.00 -15.00 -3.50 -17.00 -15.00 -2.50 -17.00 -15.00 -1.50 -17.00 -15.00 -0.50 -17.00 -15.00 0.50 -17.00 -15.00 1.50 -17.00 -15.00 2.50 -17.00 -15.00 3.50 -17.00 -15.00 4.50 -17.00 -15.00 5.50 -17.00 -15.00 6.50 -17.00 -15.00 7.50 -17.00 -15.00 8.50 -17.00 -15.00 9.50 -17.00 -15.00 10.50 -17.00 -15.00 11.50 -17.00 -15.00 12.50 -17.00 -15.00 13.50 -17.00 -15.00 14.50 -17.00 -15.00 15.50 -17.00 -15.00 16.50 -17.00 -15.00 17.50 -17.00 -15.00 18.50 -17.00 -15.00 19.50 -17.00 -15.00 20.50 -17.00 -15.00 21.50 -17.00 -15.00 22.50 -17.00 -15.00 23.50 -17.00 -15.00 24.50 -17.00 -15.00 25.50 -17.00 -15.00 26.50 -17.00 -15.00 27.50 -17.00 -15.00 28.50 -17.00 -15.00 29.50 -17.00 -15.00 32.00 -17.00 -15.00 36.00 -17.00 -15.00 40.00 -17.00 -15.00 44.00 -17.00 -15.00 48.00 -17.00 -15.00 -48.00 -14.50 -15.00 -44.00 -14.50 -15.00 -40.00 -14.50 -15.00 -36.00 -14.50 -15.00 -32.00 -14.50 -15.00 -29.50 -14.50 -15.00 -28.50 -14.50 -15.00 -27.50 -14.50 -15.00 -26.50 -14.50 -15.00 -25.50 -14.50 -15.00 -24.50 -14.50 -15.00 -23.50 -14.50 -15.00 -22.50 -14.50 -15.00 -21.50 -14.50 -15.00 -20.50 -14.50 -15.00 -19.50 -14.50 -15.00 -18.50 -14.50 -15.00 -17.50 -14.50 -15.00 -16.50 -14.50 -15.00 -15.50 -14.50 -15.00 -14.50 -14.50 -15.00 -13.50 -14.50 -15.00 -12.50 -14.50 -15.00 -11.50 -14.50 -15.00 -10.50 -14.50 -15.00 -9.50 -14.50 -15.00 -8.50 -14.50 -15.00 -7.50 -14.50 -15.00 -6.50 -14.50 -15.00 -5.50 -14.50 -15.00 -4.50 -14.50 -15.00 -3.50 -14.50 -15.00 -2.50 -14.50 -15.00 -1.50 -14.50 -15.00 -0.50 -14.50 -15.00 0.50 -14.50 -15.00 1.50 -14.50 -15.00 2.50 -14.50 -15.00 3.50 -14.50 -15.00 4.50 -14.50 -15.00 5.50 -14.50 -15.00 6.50 -14.50 -15.00 7.50 -14.50 -15.00 8.50 -14.50 -15.00 9.50 -14.50 -15.00 10.50 -14.50 -15.00 11.50 -14.50 -15.00 12.50 -14.50 -15.00 13.50 -14.50 -15.00 14.50 -14.50 -15.00 15.50 -14.50 -15.00 16.50 -14.50 -15.00 17.50 -14.50 -15.00 18.50 -14.50 -15.00 19.50 -14.50 -15.00 20.50 -14.50 -15.00 21.50 -14.50 -15.00 22.50 -14.50 -15.00 23.50 -14.50 -15.00 24.50 -14.50 -15.00 25.50 -14.50 -15.00 26.50 -14.50 -15.00 27.50 -14.50 -15.00 28.50 -14.50 -15.00 29.50 -14.50 -15.00 32.00 -14.50 -15.00 36.00 -14.50 -15.00 40.00 -14.50 -15.00 44.00 -14.50 -15.00 48.00 -14.50 -15.00 -48.00 -13.50 -15.00 -44.00 -13.50 -15.00 -40.00 -13.50 -15.00 -36.00 -13.50 -15.00 -32.00 -13.50 -15.00 -29.50 -13.50 -15.00 -28.50 -13.50 -15.00 -27.50 -13.50 -15.00 -26.50 -13.50 -15.00 -25.50 -13.50 -15.00 -24.50 -13.50 -15.00 -23.50 -13.50 -15.00 -22.50 -13.50 -15.00 -21.50 -13.50 -15.00 -20.50 -13.50 -15.00 -19.50 -13.50 -15.00 -18.50 -13.50 -15.00 -17.50 -13.50 -15.00 -16.50 -13.50 -15.00 -15.50 -13.50 -15.00 -14.50 -13.50 -15.00 -13.50 -13.50 -15.00 -12.50 -13.50 -15.00 -11.50 -13.50 -15.00 -10.50 -13.50 -15.00 -9.50 -13.50 -15.00 -8.50 -13.50 -15.00 -7.50 -13.50 -15.00 -6.50 -13.50 -15.00 -5.50 -13.50 -15.00 -4.50 -13.50 -15.00 -3.50 -13.50 -15.00 -2.50 -13.50 -15.00 -1.50 -13.50 -15.00 -0.50 -13.50 -15.00 0.50 -13.50 -15.00 1.50 -13.50 -15.00 2.50 -13.50 -15.00 3.50 -13.50 -15.00 4.50 -13.50 -15.00 5.50 -13.50 -15.00 6.50 -13.50 -15.00 7.50 -13.50 -15.00 8.50 -13.50 -15.00 9.50 -13.50 -15.00 10.50 -13.50 -15.00 11.50 -13.50 -15.00 12.50 -13.50 -15.00 13.50 -13.50 -15.00 14.50 -13.50 -15.00 15.50 -13.50 -15.00 16.50 -13.50 -15.00 17.50 -13.50 -15.00 18.50 -13.50 -15.00 19.50 -13.50 -15.00 20.50 -13.50 -15.00 21.50 -13.50 -15.00 22.50 -13.50 -15.00 23.50 -13.50 -15.00 24.50 -13.50 -15.00 25.50 -13.50 -15.00 26.50 -13.50 -15.00 27.50 -13.50 -15.00 28.50 -13.50 -15.00 29.50 -13.50 -15.00 32.00 -13.50 -15.00 36.00 -13.50 -15.00 40.00 -13.50 -15.00 44.00 -13.50 -15.00 48.0
[...]
POINT_DATA 16800
SCALARS data float
LOOKUP_TABLE default
-17.48 -17.67 -19.01 -19.24 -19.72 -19.50 -19.31 -19.13 -19.20 -19.09 -18.80 -18.79 -18.75 -18.65 -18.60 -18.53 -18.44 -18.17 -18.01 -17.99 -17.98 -18.14 -18.14 -18.15 -18.37 -18.37 -18.45 -18.52 -18.59 -18.58 -18.67 -18.55 -18.62 -18.35 -18.32 -18.20 -18.31 -18.24 -18.41 -18.41 -18.41 -18.36 -18.13 -17.92 -17.98 -17.72 -17.41 -17.33 -17.11 -16.92 -16.69 -16.53 -16.54 -16.57 -16.49 -16.35 -16.16 -16.26 -16.32 -16.61 -16.87 -17.00 -17.18 -17.23 -17.43 -17.94 -17.86 -17.87 -18.00 -17.90 -18.25 -18.23 -18.57 -18.62 -19.12 -18.91 -18.81 -18.81 -18.67 -18.70 -18.57 -18.30 -18.11 -17.99 -17.84 -17.83 -17.75 -17.80 -17.86 -18.03 -18.26 -18.13 -18.26 -18.28 -18.21 -18.15 -18.25 -18.63 -18.82 -18.98 -19.06 -18.93 -18.77 -18.88 -18.86 -18.62 -18.58 -18.52 -18.40 -18.51 -18.51 -18.50 -18.32 -18.10 -17.83 -17.54 -17.32 -17.02 -16.75 -16.57 -16.25 -16.29 -16.33 -16.47 -16.44 -16.18 -16.09 -16.23 -16.32 -16.31 -16.40 -16.64 -16.85 -17.15 -17.64 -18.02 -17.71 -17.56 -18.25 -18.28 -18.90 -18.58 -18.23 -18.27 -18.37 -18.37 -18.54 -18.51 -18.37 -18.19 -17.93 -17.83 -17.72 -17.50 -17.37 -17.35 -17.50 -17.90 -17.87 -17.91 -17.91 -17.97 -18.07 -18.27 -18.31 -18.23 -18.34 -18.45 -18.66 -18.63 -18.78 -18.78 -18.77 -18.62 -18.37 -18.33 -18.48 -18.61 -18.72 -18.49 -18.35 -18.21 -18.12 -18.28 -18.24 -18.19 -17.94 -17.45 -16.75 -16.48 -16.23 -16.30 -16.40 -16.56 -16.57 -16.66 -16.51 -16.22 -16.23 -16.48 -16.78 -17.17 -17.79 -18.00 -18.32 -18.27 -17.38 -17.43 -18.15 -18.02 -19.08 -19.11 -18.85 -18.56 -18.92 -19.76 -19.83 -19.50 -19.13 -18.89 -18.59 -18.19 -18.12 -17.96 -17.58 -17.51 -17.44 -17.49 -17.45 -17.60 -17.86 -17.96 -18.04 -18.14 -18.05 -18.02 -18.14 -18.36 -18.45 -18.61 -18.67 -18.83 -18.95 -19.11 -19.22 -19.16 -19.59 -19.67 -19.68 -19.30 -18.98 -18.79 -18.89 -18.52 -18.35 -17.97 -17.88 -17.59 -17.38 -17.19 -17.03 -16.65 -16.47 -16.60 -16.55 -16.52 -16.20 -16.04 -16.02 -16.12 -16.41 -16.82 -17.29 -17.60 -17.77 -17.53 -17.20 -17.37 -18.05 -17.57 -18.67 -18.94 -19.06 -19.02 -19.22 -19.57 -19.50 -19.35 -19.15 -18.95 -18.66 -18.52 -18.39 -18.26 -17.98 -17.85 -17.43 -17.36 -17.45 -17.40 -17.62 -17.77 -17.67 -17.78 -17.70 -17.83 -17.91 -18.08 -18.34 -18.62 -18.49 -18.58 -18.75 -18.92 -18.93 -18.99 -19.33 -19.51 -19.62 -19.55 -19.40 -19.48 -19.33 -18.75 -18.31 -18.29 -18.18 -18.00 -18.03 -17.93 -17.48 -16.90 -16.52 -16.14 -15.91 -15.73 -15.82 -15.82 -15.76 -15.69 -15.82 -16.07 -16.42 -16.60 -16.59 -16.90 -17.71 -18.00 -18.30 -17.81 -18.54 -18.79 -18.79 -19.12 -19.45 -19.69 -19.96 -19.67 -19.54 -19.18 -18.62 -18.40 -18.62 -18.53 -18.06 -18.09 -17.83 -17.71 -17.63 -17.40 -17.38 -17.42 -17.31 -17.54 -17.63 -17.63 -17.60 -18.09 -18.03 -18.32 -18.46 -18.48 -18.65 -18.76 -18.74 -18.88 -19.19 -19.50 -18.98 -18.82 -18.65 -18.80 -18.60 -18.58 -18.68 -18.76 -18.64 -18.37 -18.22 -18.05 -17.72 -17.23 -16.57 -16.26 -15.93 -15.88 -16.06 -16.19 -16.04 -15.89 -15.87 -16.23 -16.11 -15.96 -16.16 -16.60 -17.86 -18.35 -18.53 -17.89 -18.61 -19.03 -18.81 -19.00 -19.42 -19.71 -19.76 -19.72 -19.67 -19.12 -18.52 -18.58 -18.43 -18.39 -18.47 -18.31 -18.02 -17.76 -17.26 -17.29 -17.20 -17.33 -17.65 -17.68 -17.85 -17.62 -17.97 -18.11 -18.01 -18.21 -18.37 -18.42 -18.52 -18.39 -18.55 -18.72 -19.09 -19.24 -18.94 -18.44 -18.32 -18.15 -18.62 -18.41 -18.62 -18.74 -18.69 -18.57 -18.46 -18.05 -17.62 -17.45 -17.13 -16.32 -16.04 -16.14 -16.08 -16.36 -15.98 -15.87 -16.02 -16.43 -16.53 -16.36 -16.36 -16.70 -17.74 -18.22 -18.60 -17.94 -18.70 -19.19 -18.97 -18.95 -19.35 -19.58 -19.40 -19.39 -19.33 -18.95 -18.82 -18.56 -18.58 -18.78 -18.82 -18.58 -18.16 -17.94 -17.91 -17.51 -17.23 -17.33 -17.36 -17.71 -17.98 -17.65 -18.03 -18.15 -18.05 -18.23 -18.28 -18.50 -18.41 -18.39 -18.26 -18.38 -18.71 -18.71 -18.76 -18.15 -18.10 -18.33 -18.30 -18.10 -18.50 -18.86 -18.86 -18.64 -18.13 -17.99 -17.99 -17.58 -17.39 -17.21 -16.92 -16.60 -16.50 -16.42 -16.15 -15.99 -16.09 -16.51 -16.75 -16.65 -16.68 -16.91 -17.78 -18.11 -18.62 -18.01 -18.65 -19.15 -18.92 -18.77 -19.07 -19.42 -19.38 -19.37 -19.17 -18.89 -18.89 -18.51 -18.64 -18.93 -18.72 -18.60 -18.33 -18.15 -18.40 -17.80 -17.29 -17.38 -17.31 -17.49 -17.91 -17.86 -18.18 -18.05 -18.03 -18.16 -18.43 -18.50 -18.55 -18.46 -18.20 -18.36 -18.48 -18.64 -18.75 -18.52 -18.18 -18.22 -18.48 -18.14 -18.65 -18.90 -18.71 -18.40 -18.24 -18.24 -18.10 -17.80 -17.86 -17.79 -17.31 -17.15 -16.68 -16.36 -16.15 -16.29 -16.50 -16.18 -16.57 -16.62 -16.78 -17.17 -18.14 -18.23 -18.60 -18.08 -18.69 -19.13 -19.06 -18.86 -19.06 -18.96 -19.15 -19.07 -19.01 -18.92 -18.65 -18.46 -18.68 -18.76 -19.00 -18.72 -18.52 -18.38 -18.20 -17.83 -17.74 -17.54 -17.42 -17.38 -17.93 -18.12 -18.30 -18.10 -18.18 -18.19 -18.03 -18.32 -18.56 -18.34 -18.26 -18.41 -18.60 -18.79 -18.63 -18.68 -18.31 -18.38 -18.34 -18.45 -18.69 -18.78 -18.70 -18.50 -18.32 -18.25 -18.25 -17.96 -18.28 -17.86 -17.54 -17.27 -16.65 -16.54 -16.43 -16.68 -16.45 -16.38 -16.62 -16.82 -16.49 -17.30 -18.42 -18.29 -18.52 -18.08 -18.83 -19.21 -19.21 -19.02 -18.75 -18.90 -19.12 -19.31 -19.21 -18.71 -18.89 -18.87 -18.75 -18.89 -19.01 -18.71 -18.76 -18.24 -18.23 -17.99 -17.96 -17.81 -17.72 -17.60 -18.05 -18.12 -18.05 -17.90 -17.66 -17.78 -18.08 -18.14 -18.61 -18.39 -18.74 -18.91 -18.82 -18.81 -18.56 -18.62 -18.41 -18.54 -18.17 -18.55 -18.50 -18.57 -18.47 -18.48 -18.42 -18.41 -18.25 -18.39 -18.34 -18.28 -18.17 -17.66 -17.04 -17.09 -17.24 -16.82 -16.48 -16.68 -16.55 -16.82 -16.72 -17.67 -18.41 -18.39 -18.62 -18.09 -19.02 -19.38 -19.22 -19.27 -18.75 -18.57 -19.17 -19.15 -18.95 -19.11 -19.02 -18.81 -18.59 -18.62 -18.96 -18.79 -18.88 -18.20 -18.15 -18.10 -17.95 -17.70 -17.72 -17.97 -17.75 -17.83 -17.78 -17.76 -17.43 -17.36 -17.86 -18.11 -18.23 -18.53 -18.49 -18.95 -19.09 -19.05 -18.92 -18.68 -18.72 -18.53 -18.51 -18.39 -18.39 -18.25 -18.45 -18.68 -18.56 -18.49 -18.29 -18.38 -18.42 -18.36 -18.29 -17.78 -17.59 -17.27 -17.13 -16.93 -16.70 -16.66 -16.55 -16.82 -16.95 -17.92 -18.63 -18.58 -18.63 -18.08 -19.46 -19.29 -19.24 -19.27 -18.82 -18.98 -19.02 -19.12 -18.85 -19.04 -19.12 -19.03 -18.63 -18.73 -18.78 -18.79 -18.97 -18.57 -18.24 -18.32 -17.99 -17.91 -17.97 -17.85 -17.83 -17.89 -17.54 -17.33 -17.32 -17.36 -17.88 -18.13 -18.07 -18.37 -18.50 -18.62 -19.35 -19.42 -19.18 -18.93 -18.80 -18.89 -18.79 -18.43 -17.94 -18.21 -18.41 -18.78 -18.68 -18.43 -18.26 -18.58 -18.56 -18.37 -18.53 -18.23 -17.60 -17.38 -16.86 -16.85 -16.38 -16.46 -16.68 -16.82 -17.37 -18.08 -18.54 -18.58 -18.60 -17.84 -19.60 -19.17 -19.20 -19.40 -19.14 -19.21 -19.07 -19.07 -19.01 -18.88 -19.15 -18.79 -18.48 -18.26 -18.51 -18.49 -18.76 -18.50 -18.19 -18.30 -18.43 -18.43 -18.19 -18.20 -18.00 -17.79 -17.55 -17.35 -17.16 -17.41 -17.65 -18.00 -18.05 -18.22 -18.39 -18.73 -19.22 -19.40 -19.34 -18.90 -18.80 -18.90 -18.91 -18.58 -18.30 -18.16 -18.16 -18.52 -18.49 -18.24 -18.43 -18.31 -18.59 -18.64 -18.61 -18.24 -17.99 -17.20 -17.39 -17.07 -16.92 -16.82 -16.83 -17.15 -17.30 -17.90 -18.27 -18.60 -18.61 -17.58 -19.11 -18.99 -19.46 -19.39 -19.16 -19.19 -19.12 -19.00 -19.03 -18.95 -18.85 -18.23 -18.07 -17.99 -17.88 -18.00 -18.58 -18.48 -18.64 -18.25 -18.18 -18.57 -18.39 -18.29 -18.05 -17.79 -17.77 -17.52 -17.39 -17.45 -17.52 -17.82 -17.99 -18.08 -18.27 -18.49 -19.07 -19.27 -19.08 -18.82 -18.83 -19.07 -18.94 -18.54 -18.42 -18.37 -18.41 -18.42 -18.56 -18.53 -18.71 -18.53 -18.57 -18.73 -18.76 -18.48 -18.14 -18.06 -17.72 -17.26 -17.30 -16.86 -17.02 -17.19 -17.28 -17.75 -17.82 -18.56 -18.17 -17.41 -18.66 -18.86 -19.45 -19.38 -19.16 -19.20 -18.82 -18.76 -18.51 -18.56 -18.58 -18.31 -18.14 -17.72 -17.60 -17.87 -18.43 -18.79 -18.66 -18.51 -18.65 -18.70 -18.59 -17.97 -17.92 -17.39 -17.67 -17.59 -17.83 -17.79 -17.75 -17.74 -17.98 -17.93 -18.03 -18.23 -18.77 -19.11 -18.96 -18.77 -18.89 -18.97 -18.70 -18.38 -18.24 -18.38 -18.60 -18.40 -18.41 -18.73 -18.78 -18.54 -18.42 -18.46 -18.65 -18.66 -18.43 -18.20 -18.43 -17.96 -17.45 -17.26 -17.37 -17.51 -17.73 -17.65 -17.48 -18.48 -18.07 -17.54 -18.29 -18.62 -19.31 -19.38 -19.44 -19.34 -19.04 -18.94 -18.73 -18.23 -18.42 -18.48 -18.04 -17.66 -17.30 -17.75 -18.19 -18.46 -18.65 -18.33 -18.67 -18.96 -18.53 -18.28 -17.83 -17.80 -17.61 -17.60 -17.77 -17.56 -17.59 -17.63 -17.63 -17.70 -17.90 -17.93 -18.46 -18.64 -18.92 -18.79 -18.94 -19.01 -18.76 -18.47 -18.18 -18.81 -18.83 -18.73 -18.78 -18.58 -18.58 -18.20 -18.27 -18.58 -18.65 -18.79 -18.62 -18.63 -18.39 -18.13 -17.64 -17.42 -17.52 -17.92 -18.02 -17.87 -17.55 -18.35 -18.08 -17.64 -18.07 -18.54 -19.09 -19.28 -19.12 -19.38 -19.25 -19.21 -18.66 -18.32 -18.16 -18.12 -18.01 -17.72 -17.83 -17.96 -18.23 -18.08 -18.33 -18.26 -18.43 -18.83 -18.69 -18.38 -18.14 -18.14 -17.74 -17.68 -17.49 -17.30 -17.27 -17.59 -17.53 -17.65 -17.93 -17.83 -18.01 -18.42 -18.55 -18.60 -18.86 -18.97 -18.89 -18.46 -18.27 -18.35 -18.47 -18.62 -18.58 -18.57 -18.13 -18.24 -18.44 -18.83 -18.62 -18.79 -18.91 -18.81 -18.46 -18.18 -17.74 -17.42 -17.70 -17.64 -17.75 -17.72 -17.74 -18.39 -17.88 -17.55 -17.82 -18.29 -19.10 -19.03 -18.98 -19.19 -19.11 -18.95 -18.47 -18.27 -18.11 -18.08 -17.91 -17.80 -17.72 -17.85 -18.02 -17.95 -17.80 -17.95 -18.43 -18.58 -18.58 -18.43 -18.54 -18.42 -17.99 -17.86 -17.43 -17.31 -17.30 -17.75 -17.34 -17.27 -17.54 -17.63 -18.00 -18.43 -18.49 -18.78 -19.08 -19.19 -19.10 -18.73 -18.25 -17.96 -18.20 -18.60 -18.44 -18.32 -18.24 -18.12 -18.20 -18.35 -18.71 -18.66 -19.00 -19.00 -18.62 -18.13 -17.79 -17.74 -17.99 -17.92 -17.92 -17.89 -17.63 -18.35 -17.77 -17.42 -17.65 -18.19 -18.76 -18.93 -18.99 -19.06 -19.01 -19.33 -18.85 -18.45 -18.28 -18.01 -17.92 -17.74 -17.66 -17.54 -17.65 -17.70 -17.62 -17.80 -17.95 -18.53 -18.53 -18.57 -18.43 -17.96 -17.71 -17.54 -17.21 -17.34 -17.46 -17.32 -17.08 -17.08 -17.12 -17.72 -18.15 -18.29 -18.44 -18.78 -19.20 -19.05 -19.07 -18.70 -18.44 -18.17 -18.40 -18.43 -18.31 -18.21 -18.25 -18.16 -17.99 -18.39 -18.49 -18.96 -19.11 -18.68 -18.18 -18.14 -18.10 -17.97 -17.86 -17.90 -18.03 -18.10 -17.69 -18.17 -17.42 -17.13 -17.40 -17.93 -18.47 -18.90 -19.12 -19.32 -19.40 -19.46 -19.29 -18.73 -18.47 -18.29 -17.97 -17.91 -17.54 -17.56 -17.44 -17.63 -17.54 -17.76 -17.69 -17.89 -18.40 -18.48 -18.31 -18.03 -17.55 -17.23 -17.10 -17.33 -17.73 -17.60 -17.49 -17.36 -17.49 -17.77 -18.04 -18.21 -18.42 -18.76 -18.95 -18.95 -18.90 -18.79 -18.41 -18.49 -18.39 -18.42 -18.27 -18.32 -18.34 -18.27 -18.34 -18.42 -18.85 -19.04 -18.78 -18.72 -18.60 -17.94 -17.87 -17.79 -17.82 -17.81 -17.99 -18.26 -17.86 -18.00 -17.22 -16.80 -17.31 -17.48 -18.24 -18.76 -19.40 -19.88 -19.68 -19.60 -19.20 -18.92 -18.45 -18.31 -17.95 -17.80 -17.77 -17.55 -17.25 -17.42 -17.23 -17.29 -17.38 -18.09 -18.20 -18.29 -18.09 -18.01 -17.70 -17.31 -17.21 -17.47 -17.69 -17.57 -17.78 -17.71 -17.57 -17.70 -17.90 -18.35 -18.69 -18.78 -18.96 -18.95 -18.62 -18.66 -18.70 -18.74 -18.81 -18.65 -18.58 -18.46 -18.46 -18.43 -18.43 -18.68 -19.02 -19.14 -19.14 -18.81 -18.45 -18.11 -17.89 -17.87 -17.78 -17.89 -18.25 -18.26 -17.84 -17.99 -17.18 -16.58 -17.17 -17.10 -17.61 -18.92 -19.58 -19.73 -19.72 -19.68 -19.18 -18.92 -18.67 -18.20 -17.69 -17.83 -17.64 -17.37 -17.14 -16.99 -16.83 -16.78 -17.29 -17.87 -18.12 -18.24 -17.90 -17.61 -17.65 -17.63 -17.50 -17.51 -17.36 -17.35 -17.64 -17.72 -17.80 -17.61 -18.11 -18.67 -18.99 -19.03 -18.96 -19.09 -18.71 -18.70 -18.67 -18.69 -19.09 -18.88 -18.92 -18.40 -18.14 -18.37 -18.45 -18.81 -18.83 -18.99 -18.95 -18.77 -18.33 -18.07 -17.88 -17.92 -17.75 -18.04 -18.10 -18.26 -18.12 -18.14 -16.90 -16.23 -17.03 -16.84 -17.24 -18.85 -19.78 -19.68 -19.62 -19.34 -18.95 -18.74 -18.61 -17.91 -17.64 -17.46 -17.26 -16.75 -16.98 -16.88 -16.67 -16.85 -17.12 -17.74 -18.12 -18.17 -18.19 -17.53 -17.69 -17.96 -17.95 -17.99 -17.63 -17.59 -17.81 -17.54 -17.42 -17.97 -18.36 -18.88 -19.06 -18.99 -18.95 -18.84 -18.44 -18.43 -18.91 -18.87 -18.92 -18.88 -18.88 -18.62 -18.56 -18.52 -18.32 -18.58 -18.60 -18.80 -18.71 -18.70 -18.53 -18.32 -18.19 -17.98 -17.85 -17.63 -17.69 -17.88 -18.18 -18.34 -17.05 -16.10 -17.15 -16.68 -16.85 -18.70 -19.71 -19.88 -19.73 -19.26 -18.85 -18.67 -18.48 -17.88 -17.53 -17.50 -17.05 -16.89 -16.92 -17.10 -17.13 -16.92 -17.20 -17.72 -18.03 -18.13 -17.56 -17.67 -17.69 -17.85 -17.97 -18.30 -17.98 -17.76 -17.90 -17.82 -17.71 -18.48 -18.92 -19.02 -19.17 -19.01 -18.69 -18.46 -18.49 -18.58 -18.91 -18.93 -18.90 -19.08 -18.96 -18.82 -18.24 -18.32 -18.24 -18.26 -18.28 -18.50 -18.66 -18.29 -18.49 -18.44 -18.38 -17.94 -17.77 -17.60 -17.37 -17.73 -18.08 -18.25 -17.13 -16.34 -17.24 -16.45 -16.64 -18.53 -19.38 -19.90 -19.73 -19.30 -19.31 -18.78 -18.30 -17.79 -17.57 -17.35 -16.93 -16.63 -16.65 -16.96 -16.98 -16.90 -17.34 -17.91 -18.06 -17.83 -17.62 -17.65 -17.88 -17.86 -18.10 -18.18 -17.97 -17.96 -18.50 -18.56 -18.40 -18.76 -19.17 -19.27 -19.26 -19.20 -18.86 -18.70 -18.71 -18.74 -18.98 -18.99 -18.72 -18.81 -18.85 -18.48 -18.45 -18.14 -17.89 -18.08 -18.02 -18.24 -18.41 -18.39 -18.15 -18.21 -18.09 -17.73 -17.85 -17.19 -17.02 -17.38 -17.53 -17.90 -17.22 -16.42 -17.35 -16.56 -16.85 -18.37 -19.16 -19.56 -19.69 -19.22 -18.96 -18.63 -18.74 -18.03 -17.72 -17.27 -17.07 -16.68 -16.80 -16.99 -17.14 -17.05 -17.22 -17.50 -17.75 -17.38 -17.32 -18.01 -18.16 -18.14 -18.36 -18.50 -18.68 -18.72 -19.07 -18.90 -19.13 -19.24 -19.11 -19.39 -19.19 -19.21 -18.83 -19.01 -19.03 -19.10 -18.98 -19.16 -18.93 -18.84 -18.70 -18.81 -18.64 -18.43 -18.31 -18.42 -18.14 -18.19 -18.23 -18.20 -17.99 -17.71 -17.90 -17.80 -17.51 -17.09 -16.92 -17.32 -17.38 -17.84 -17.10 -16.37 -17.49 -16.67 -16.88 -18.18 -18.98 -19.08 -19.27 -19.06 -19.01 -18.86 -18.81 -18.11 -17.97 -17.28 -17.09 -16.77 -16.98 -17.04 -17.24 -17.26 -17.07 -17.29 -17.45 -17.31 -17.58 -17.93 -18.11 -18.30 -18.48 -18.84 -18.91 -19.00 -19.28 -18.85 -19.08 -19.23 -19.35 -19.52 -19.49 -19.31 -19.24 -19.41 -19.46 -19.20 -19.18 -19.03 -18.89 -18.73 -18.71 -18.75 -18.70 -18.56 -18.56 -18.65 -18.52 -18.37 -18.21 -18.13 -17.87 -17.55 -17.67 -17.40 -17.36 -17.06 -16.79 -17.22 -17.36 -17.52 -17.15 -16.24 -17.36 -17.07 -17.15 -17.87 -18.89 -19.06 -19.14 -19.15 -19.11 -19.01 -18.80 -18.34 -18.11 -17.68 -17.35 -17.20 -17.03 -17.29 -17.35 -17.44 -17.54 -17.42 -17.31 -17.30 -17.56 -17.94 -18.18 -18.13 -18.39 -18.98 -19.14 -19.27 -19.35 -19.32 -19.27 -19.17 -19.58 -19.46 -19.55 -19.27 -19.11 -19.32 -19.15 -18.95 -19.43 -18.89 -18.86 -18.60 -19.10 -18.99 -18.85 -18.47 -18.66 -18.71 -18.55 -18.25 -17.90 -18.12 -17.71 -17.58 -17.23 -17.21 -17.15 -16.99 -16.95 -17.38 -17.22 -17.34 -16.96 -16.36 -17.56 -17.30 -17.29 -17.76 -18.84 -19.25 -19.17 -19.27 -18.95 -18.84 -18.75 -18.66 -18.25 -18.01 -17.64 -17.32 -17.14 -17.36 -17.14 -17.38 -17.53 -17.49 -17.55 -17.64 -17.83 -17.95 -18.30 -18.51 -18.73 -19.18 -19.31 -19.40 -19.56 -19.56 -19.69 -19.64 -19.55 -19.76 -19.78 -19.58 -19.09 -18.98 -19.00 -18.99 -19.42 -18.90 -18.68 -18.67 -18.93 -18.94 -18.69 -18.59 -18.62 -18.75 -18.57 -18.13 -18.24 -18.12 -18.03 -17.79 -17.38 -17.03 -17.27 -17.23 -16.92 -17.20 -17.12 -17.28 -17.19 -16.98 -17.65 -17.59 -17.76 -17.96 -18.94 -19.00 -19.25 -18.91 -19.01 -18.70 -18.94 -18.63 -18.46 -18.25 -17.88 -17.46 -17.39 -17.41 -17.47 -17.50 -17.39 -17.67 -17.80 -18.00 -18.08 -18.18 -18.30 -18.60 -19.25 -19.26 -19.28 -19.36 -19.45 -19.67 -19.76 -19.77 -19.69 -19.71 -19.62 -19.47 -19.08 -18.90 -18.90 -19.06 -19.20 -18.81 -18.86 -18.85 -18.75 -18.66 -18.46 -18.29 -18.44 -18.61 -18.57 -18.44 -18.16 -18.01 -17.61 -17.40 -17.25 -17.13 -17.29 -17.05 -17.04 -17.19 -17.13 -17.24 -17.40 -17.53 -17.60 -17.91 -18.15 -18.15 -18.71 -19.05 -18.82 -18.82 -19.03 -19.10 -18.94 -18.62 -18.64 -18.30 -17.73 -17.54 -17.53 -17.80 -17.89 -17.68 -17.82 -17.94 -17.77 -18.04 -18.01 -18.00 -18.64 -19.01 -19.08 -19.23 -19.07 -19.29 -19.62 -19.66 -19.84 -20.04 -20.04 -19.88 -19.60 -19.22 -19.23 -19.26 -19.22 -19.29 -19.32 -19.17 -18.77 -18.62 -18.78 -18.66 -18.13 -18.32 -18.22 -18.13 -18.15 -18.10 -18.14 -18.02 -17.60 -17.53 -17.19 -17.03 -16.98 -17.33 -17.23 -17.19 -17.07 -17.38 -17.15 -17.81 -17.51 -17.96 -18.50 -18.37 -18.68 -18.81 -18.67 -18.89 -18.77 -18.84 -18.95 -18.66 -18.66 -18.21 -17.92 -17.90 -18.08 -18.05 -18.04 -17.97 -18.11 -18.01 -17.83 -18.08 -17.98 -18.44 -18.70 -18.99 -19.32 -19.19 -19.36 -19.40 -19.59 -19.63 -19.66 -19.96 -19.97 -19.83 -19.56 -19.33 -19.27 -19.18 -19.31 -19.21 -19.28 -19.17 -18.70 -18.83 -18.53 -18.55 -18.25 -17.96 -17.86 -17.67 -17.31 -17.42 -17.54 -17.71 -17.81 -17.60 -17.42 -17.10 -17.23 -17.53 -17.43 -17.11 -16.93 -17.42 -17.07 -17.87 -17.66 -18.25 -18.64 -18.41 -18.66 -18.80 -18.74 -18.74 -18.76 -19.19 -18.96 -18.71 -18.63 -18.24 -17.94 -18.01 -18.10 -18.01 -17.92 -17.81 -17.97 -17.95 -18.01 -18.29 -18.41 -18.67 -18.94 -19.05 -19.57 -19.48 -19.57 -19.63 -19.75 -19.53 -19.60 -19.69 -19.65 -19.51 -19.40 -19.26 -19.09 -18.95 -19.17 -19.19 -19.03 -18.96 -18.82 -18.79 -18.44 -18.34 -18.05 -17.89 -17.82 -17.51 -17.11 -17.32 -17.52 -17.70 -17.83 -17.98 -17.61 -17.42 -17.68 -17.91 -17.45 -17.15 -16.83 -17.39 -16.93 -17.81 -17.74 -18.22 -18.65 -18.81 -18.64 -18.75 -18.94 -18.87 -18.86 -18.93 -18.83 -18.91 -18.59 -18.29 -18.00 -18.19 -18.07 -17.96 -17.69 -17.88 -18.03 -17.99 -18.01 -18.19 -18.33 -18.66 -18.84 -19.24 -19.60 -19.55 -19.37 -19.64 -19.65 -19.73 -19.60 -19.65 -19.48 -19.48 -19.08 -19.05 -18.76 -18.65 -19.03 -18.79 -18.96 -19.02 -18.71 -18.67 -18.75 -18.64 -18.28 -17.96 -17.97 -17.89 -17.53 -17.53 -18.00 -17.83 -18.09 -18.03 -17.88 -17.91 -17.89 -17.73 -17.61 -17.10 -16.76 -17.22 -17.01 -17.96 -18.24 -18.73 -19.32 -19.44 -19.03 -19.18 -19.39 -19.06 -19.02 -18.83 -18.91 -18.75 -18.67 -18.59 -18.43 -18.29 -18.02 -17.86 -17.86 -17.86 -17.61 -17.68 -17.78 -17.96 -18.17 -18.46 -18.86 -19.31 -19.53 -19.70 -19.47 -19.38 -19.36 -19.32 -19.38 -19.18 -18.96 -18.90 -18.88 -18.58 -18.46 -18.64 -18.63 -18.62 -18.63 -18.63 -18.72 -19.05 -19.18 -18.87 -18.82 -18.55 -18.30 -18.23 -18.37 -18.65 -18.67 -18.62 -18.61 -18.38 -18.37 -18.40 -18.20 -18.04 -18.11 -17.33 -17.00 -17.05 -17.16 -17.97 -18.90 -19.58 -19.85 -19.92 -19.46 -19.48 -19.20 -18.86 -18.75 -18.80 -19.05 -19.16 -19.31 -19.25 -19.23 -19.23 -19.21 -19.09 -18.79 -18.71 -18.46 -18.25 -18.12 -17.94 -18.13 -18.50 -19.02 -19.45 -19.73 -19.72 -19.67 -19.44 -19.18 -19.01 -18.97 -18.89 -18.62 -18.58 -18.35 -18.07 -18.08 -17.97 -18.14 -18.30 -18.42 -18.55 -18.77 -19.02 -19.11 -18.94 -18.90 -19.10 -19.07 -19.20 -19.53 -19.72 -19.73 -19.67 -19.43 -19.07 -18.99 -18.85 -18.61 -18.71 -18.67 -18.10 -17.62 -17.34 -17.60 -18.06 -18.88 -19.47 -20.05 -20.19 -19.10 -18.66 -18.91 -19.05 -19.44 -19.45 -19.56 -19.48 -19.52 -19.72 -19.89 -19.83 -19.81 -19.53 -19.44 -19.24 -18.82 -18.49 -18.29 -18.26 -18.24 -18.29 -18.35 -18.38 -18.70 -19.09 -19.42 -19.33 -19.12 -18.96 -18.91 -18.60 -18.72 -18.50 -18.20 -18.08 -17.95 -17.84 -17.85 -17.90 -18.09 -18.19 -18.34 -18.62 -18.90 -19.18 -19.37 -19.50 -19.41 -19.43 -19.63 -19.57 -19.64 -19.71 -19.12 -18.83 -18.75 -18.34 -18.32 -18.35 -18.26 -17.95 -17.88 -18.21 -18.17 -17.97 -19.08 -19.61 -20.14 -19.70 -19.61 -19.59 -19.72 -19.73 -19.69 -19.54 -19.75 -19.70 -19.53 -19.36 -19.46 -19.53 -19.55 -19.45 -19.04 -18.77 -18.47 -18.33 -18.28 -18.33 -18.41 -18.27 -18.35 -18.48 -18.53 -18.69 -18.59 -18.33 -18.41 -18.38 -18.35 -18.36 -18.31 -18.34 -18.29 -18.20 -18.43 -18.39 -18.41 -18.51 -18.31 -18.17 -18.18 -18.11 -18.32 -18.56 -18.73 -18.92 -18.99 -19.08 -18.98 -18.78 -18.54 -18.16 -17.94 -17.51 -17.49 -17.65 -17.88 -18.15 -18.25 -18.13 -18.29 -18.64 -18.57 -18.01 -18.93 -19.36 -19.43 -19.64 -19.85 -19.57 -19.55 -19.68 -19.84 -19.82 -20.02 -19.94 -19.82 -19.63 -19.46 -19.40 -19.23 -18.83 -18.44 -18.18 -18.17 -18.28 -18.47 -18.38 -18.28 -18.60 -18.62 -18.46 -18.35 -18.16 -17.97 -17.91 -17.89 -17.81 -17.89 -18.07 -18.12 -18.18 -18.43 -18.53 -18.54 -18.43 -18.04 -18.05 -17.99 -18.13 -18.31 -18.13 -18.17 -18.22 -18.13 -18.28 -18.23 -18.14 -18.08 -18.15 -18.33 -18.25 -18.17 -18.28 -18.42 -18.29 -18.34 -18.50 -18.84 -19.04 -18.73 -18.52 -18.34 -17.96 -6.48 -6.97 -7.97 -7.20 -8.44 -8.12 -7.60 -7.43 -7.27 -7.08 -7.02 -6.48 -6.48 -6.37 -6.13 -6.04 -5.87 -6.17 -6.29 -6.69 -6.60 -6.51 -6.54 -6.61 -6.74 -6.95 -7.26 -7.16 -7.10 -7.33 -7.40 -7.26 -7.61 -7.25 -7.57 -7.30 -7.15 -7.26 -7.19 -7.29 -7.18 -7.22 -6.74 -6.60 -7.13 -7.14 -6.54 -6.30 -5.71 -5.27 -5.03 -4.64 -4.98 -5.29 -5.37 -5.44 -5.23 -