# vtk DataFile Version 2.0
VTK from Matlab
ASCII
DATASET STRUCTURED_POINTS
DIMENSIONS 50 35 10
SPACING 1 1 1
ORIGIN 0 0 0
POINT_DATA 17500
SCALARS Conductivity float 1
LOOKUP_TABLE default
-20.17 -19.69 -18.86 -17.76 -18.37 -19.21 -18.78 -17.46 -18.01 -17.31 -17.47 -17.68 -17.27 -17.46 -16.69 -16.83 -16.84 -17.29 -16.19 -16.49 -16.85 -16.63 -16.18 -16.36 -16.13 -16.34 -16.59 -17.40 -17.91 -18.28 -18.80 -18.78 -18.32 -17.76 -18.77 -17.80 -17.63 -18.66 -18.48 -18.57 -18.12 -17.77 -17.19 -18.47 -18.75 -19.31 -19.80 -20.06 -20.82 -20.44 -20.34 -19.52 -18.88 -18.74 -18.71 -18.73 -18.67 -18.19 -17.33 -17.79 -17.90 -18.50 -17.82 -17.54 -16.80 -16.77 -16.49 -17.03 -16.17 -16.64 -16.31 -16.33 -16.71 -16.13 -16.33 -16.14 -16.71 -16.62 -17.98 -19.02 -19.71 -19.31 -18.31 -17.50 -18.23 -18.52 -17.48 -18.16 -17.47 -17.69 -18.49 -17.41 -17.44 -18.21 -18.26 -19.18 -19.39 -20.46 -20.73 -20.35 -20.21 -20.65 -19.35 -18.82 -19.10 -19.08 -18.97 -19.09 -17.57 -17.92 -18.26 -17.66 -17.75 -16.71 -17.18 -16.33 -15.72 -16.17 -16.20 -16.52 -16.63 -16.44 -16.58 -16.75 -16.25 -16.41 -16.97 -17.29 -18.49 -19.81 -19.85 -19.54 -18.46 -18.78 -17.88 -18.15 -17.75 -17.76 -17.62 -17.93 -18.27 -17.78 -18.65 -18.35 -18.14 -18.30 -19.04 -19.33 -19.15 -18.73 -19.77 -20.00 -19.87 -19.24 -19.18 -19.21 -18.80 -18.67 -18.21 -18.49 -17.92 -17.50 -16.37 -16.48 -16.53 -17.17 -16.35 -16.57 -17.15 -16.86 -16.52 -17.31 -16.63 -17.00 -16.83 -16.83 -17.63 -17.49 -18.29 -19.35 -19.71 -19.13 -18.65 -18.88 -18.54 -18.34 -17.78 -17.81 -17.67 -18.04 -18.07 -17.83 -17.93 -17.56 -18.06 -18.71 -19.33 -19.38 -19.31 -17.06 -19.85 -20.25 -20.14 -19.59 -20.37 -20.13 -19.76 -19.00 -19.07 -19.40 -18.30 -16.53 -16.16 -16.81 -17.22 -17.49 -16.81 -17.23 -17.42 -17.04 -17.22 -17.16 -17.43 -17.93 -18.09 -17.84 -17.09 -18.60 -18.67 -19.20 -19.18 -19.57 -19.34 -19.00 -18.95 -17.93 -18.11 -17.83 -17.63 -17.86 -17.53 -16.78 -17.62 -17.36 -17.49 -18.40 -19.06 -18.32 -18.19 -18.07 -19.03 -19.61 -19.65 -20.05 -20.84 -20.31 -20.14 -19.75 -19.65 -18.59 -18.56 -17.57 -17.15 -15.95 -17.15 -17.43 -17.38 -17.57 -16.80 -17.53 -17.80 -18.25 -17.72 -18.15 -18.14 -18.03 -18.62 -18.60 -18.25 -17.83 -18.58 -18.81 -18.88 -18.06 -17.99 -18.27 -17.82 -17.95 -17.57 -17.02 -17.19 -17.18 -17.85 -17.69 -17.41 -18.04 -18.59 -18.56 -17.87 -18.63 -18.62 -19.01 -18.42 -19.38 -19.53 -20.26 -20.23 -20.18 -19.74 -18.90 -17.95 -17.73 -17.82 -15.94 -15.80 -17.28 -17.55 -17.35 -18.24 -17.54 -18.17 -17.83 -18.29 -17.75 -18.28 -18.10 -18.49 -18.93 -18.96 -18.86 -19.25 -18.87 -17.91 -17.78 -18.26 -18.60 -18.07 -18.61 -17.27 -17.67 -17.15 -17.97 -18.20 -18.04 -17.75 -17.99 -18.24 -18.43 -17.97 -17.85 -19.50 -18.98 -18.85 -19.65 -19.80 -19.78 -19.98 -20.31 -19.62 -19.09 -18.30 -17.23 -16.94 -15.82 -16.19 -17.51 -17.59 -18.50 -19.05 -18.47 -18.03 -17.57 -18.30 -18.26 -18.09 -18.36 -18.95 -19.19 -20.18 -20.25 -19.38 -19.67 -18.38 -18.08 -18.42 -18.27 -17.11 -17.99 -17.30 -17.78 -16.89 -17.75 -18.35 -17.61 -17.12 -17.55 -19.14 -18.86 -17.54 -17.55 -18.48 -17.33 -18.19 -19.31 -19.98 -20.46 -20.20 -19.92 -19.15 -19.61 -19.06 -18.34 -17.14 -16.65 -17.00 -17.51 -17.79 -18.40 -18.84 -18.08 -18.23 -18.25 -18.04 -18.23 -18.74 -18.99 -18.90 -18.99 -19.13 -19.74 -19.30 -19.12 -18.81 -18.92 -18.51 -18.34 -18.38 -18.36 -17.44 -16.77 -16.78 -16.89 -17.47 -18.18 -17.45 -16.91 -18.04 -18.25 -17.86 -18.00 -18.02 -17.74 -17.85 -18.14 -18.90 -18.71 -19.32 -18.78 -18.24 -18.75 -19.24 -18.97 -17.51 -17.38 -18.11 -17.44 -17.78 -18.15 -18.60 -18.06 -18.49 -18.21 -17.90 -18.16 -18.68 -18.93 -19.71 -19.45 -19.73 -19.09 -19.36 -18.38 -18.70 -18.74 -18.10 -18.13 -17.75 -17.84 -18.01 -17.49 -16.69 -17.13 -16.68 -16.01 -16.61 -17.27 -17.41 -17.34 -18.25 -17.91 -18.22 -17.81 -17.57 -17.62 -17.77 -18.10 -18.36 -19.00 -18.59 -18.64 -18.45 -18.11 -18.09 -17.68 -17.51 -17.54 -17.36 -17.32 -17.52 -18.21 -17.14 -17.50 -17.61 -17.42 -19.08 -19.16 -19.13 -19.54 -19.19 -18.40 -18.59 -17.99 -17.45 -17.12 -16.93 -17.12 -16.74 -18.03 -17.15 -17.39 -17.68 -15.83 -16.39 -15.70 -16.08 -15.97 -16.67 -16.50 -17.18 -17.61 -17.89 -17.98 -18.03 -18.45 -18.50 -17.93 -18.10 -18.40 -18.62 -18.04 -18.57 -18.60 -18.26 -18.33 -18.65 -17.66 -17.58 -17.01 -16.23 -17.03 -17.43 -17.55 -17.32 -17.96 -18.66 -19.24 -19.52 -19.32 -18.53 -17.90 -18.24 -18.39 -17.54 -17.36 -17.44 -17.00 -17.28 -17.48 -17.00 -18.02 -17.56 -16.23 -16.85 -15.77 -15.95 -15.67 -16.25 -15.96 -16.29 -16.16 -18.45 -18.25 -18.30 -18.71 -18.27 -18.29 -17.99 -18.76 -18.40 -17.98 -19.00 -18.50 -18.88 -18.32 -18.28 -17.80 -18.32 -17.13 -16.59 -16.49 -17.02 -17.43 -17.57 -17.98 -17.73 -18.55 -18.90 -18.45 -18.30 -18.05 -17.80 -18.34 -17.24 -17.16 -17.64 -17.16 -17.09 -17.17 -17.34 -17.91 -17.28 -17.29 -16.34 -15.83 -16.41 -16.25 -17.27 -16.31 -15.79 -16.65 -19.01 -18.97 -18.77 -18.37 -17.80 -17.61 -18.01 -18.31 -18.62 -17.24 -18.46 -18.26 -18.39 -18.14 -18.67 -18.97 -18.58 -18.12 -16.80 -16.66 -16.43 -17.28 -18.48 -17.58 -17.39 -18.61 -18.56 -19.21 -18.02 -17.72 -18.10 -17.53 -18.11 -17.92 -16.94 -17.70 -17.21 -16.90 -17.73 -17.39 -17.08 -16.46 -16.24 -16.62 -16.60 -16.45 -17.28 -16.75 -16.46 -16.41 -18.61 -18.36 -19.45 -18.13 -18.20 -17.97 -17.71 -17.85 -18.11 -18.20 -17.39 -17.92 -18.44 -18.53 -19.67 -18.78 -18.66 -17.91 -16.56 -16.41 -17.21 -16.97 -17.91 -18.70 -18.22 -18.70 -18.54 -18.98 -18.65 -18.77 -19.70 -18.69 -18.94 -18.19 -17.16 -17.48 -17.51 -16.87 -17.61 -16.42 -16.24 -16.26 -15.58 -16.53 -16.57 -17.17 -17.22 -16.92 -16.58 -16.21 -18.93 -18.96 -19.37 -19.10 -18.39 -18.64 -17.62 -18.51 -18.28 -17.72 -18.18 -19.10 -18.81 -19.19 -18.99 -18.85 -18.08 -18.13 -17.65 -18.03 -18.16 -18.18 -18.38 -17.96 -18.01 -18.87 -18.85 -19.06 -19.21 -18.73 -18.99 -18.88 -19.53 -17.89 -18.22 -17.57 -17.92 -17.42 -16.91 -16.57 -16.08 -16.30 -16.98 -16.65 -16.69 -17.36 -17.97 -16.31 -16.12 -15.79 -19.75 -19.40 -19.92 -19.18 -19.12 -18.39 -18.30 -18.14 -18.49 -17.81 -18.34 -18.56 -18.79 -18.74 -18.93 -18.90 -18.96 -18.00 -18.13 -18.54 -18.78 -19.04 -19.12 -18.37 -18.74 -19.02 -19.22 -18.59 -19.21 -18.85 -19.08 -18.62 -19.05 -19.16 -19.35 -18.18 -17.22 -17.17 -16.92 -16.16 -16.47 -17.54 -17.71 -16.96 -17.69 -18.43 -18.27 -16.62 -16.35 -16.11 -20.04 -20.39 -20.28 -19.71 -19.68 -18.79 -18.04 -17.69 -18.25 -18.46 -18.67 -17.99 -18.84 -18.46 -18.82 -19.36 -18.89 -18.77 -18.97 -18.10 -18.94 -20.40 -19.66 -19.39 -19.45 -19.15 -18.41 -19.60 -19.49 -18.75 -18.60 -18.44 -18.87 -19.17 -18.77 -17.64 -17.60 -18.11 -17.72 -17.34 -17.19 -18.02 -17.32 -18.58 -18.13 -17.92 -18.58 -17.37 -16.94 -16.26 -20.05 -20.71 -20.34 -19.59 -19.53 -19.47 -18.60 -18.12 -18.13 -18.97 -19.33 -18.42 -18.38 -17.77 -18.47 -19.04 -18.96 -19.12 -18.41 -18.66 -19.94 -21.07 -20.29 -19.62 -19.31 -18.49 -18.67 -18.23 -18.74 -18.29 -18.77 -18.67 -18.63 -20.04 -19.19 -18.27 -17.99 -18.71 -18.43 -17.33 -17.83 -18.25 -18.50 -18.72 -18.39 -18.61 -18.00 -17.51 -17.28 -16.19 -19.78 -20.27 -20.23 -19.09 -18.74 -19.40 -18.94 -18.74 -19.01 -18.72 -19.30 -17.56 -17.82 -18.17 -18.96 -19.63 -18.80 -17.87 -18.25 -18.26 -19.72 -20.54 -20.29 -19.73 -19.74 -18.47 -19.27 -19.28 -19.82 -19.04 -18.87 -18.17 -18.52 -18.45 -18.81 -18.87 -18.37 -19.03 -18.96 -18.71 -18.67 -18.84 -19.06 -19.31 -18.93 -18.76 -18.44 -17.80 -17.83 -17.10 -20.56 -20.52 -20.19 -19.43 -19.16 -19.01 -18.15 -18.16 -18.66 -18.47 -19.18 -18.41 -18.33 -18.13 -18.77 -18.87 -18.94 -18.54 -18.01 -19.02 -20.48 -20.51 -20.84 -19.70 -19.46 -18.86 -18.60 -19.11 -19.73 -18.80 -18.37 -17.41 -17.10 -17.47 -17.92 -18.27 -18.15 -17.96 -18.15 -18.86 -19.28 -19.12 -19.52 -19.32 -19.10 -19.01 -18.93 -18.11 -17.14 -16.57 -20.02 -20.50 -19.85 -19.72 -19.20 -18.97 -18.31 -18.55 -18.48 -18.27 -18.13 -17.74 -18.06 -17.74 -18.12 -18.36 -19.17 -19.54 -19.42 -19.54 -21.04 -20.24 -20.90 -20.29 -19.74 -19.50 -19.26 -19.03 -18.32 -18.39 -17.27 -18.26 -17.05 -16.90 -17.14 -16.69 -17.73 -18.09 -18.01 -19.65 -19.21 -18.85 -19.19 -19.62 -18.52 -18.74 -18.41 -17.57 -16.20 -16.47 -19.01 -19.93 -19.96 -18.93 -18.76 -18.91 -18.82 -18.29 -17.71 -17.91 -18.26 -18.19 -18.01 -17.21 -17.47 -18.31 -17.64 -18.93 -19.57 -20.80 -21.77 -20.61 -21.28 -20.78 -19.70 -19.77 -19.24 -18.41 -18.27 -18.06 -17.55 -18.11 -18.26 -17.46 -16.94 -16.82 -17.59 -17.82 -18.95 -18.87 -18.23 -18.61 -18.71 -18.99 -18.69 -18.16 -17.95 -17.13 -17.21 -17.04 -19.53 -19.36 -19.06 -18.05 -18.72 -18.65 -18.91 -18.50 -17.58 -18.03 -17.24 -17.88 -18.53 -18.01 -18.03 -18.10 -18.73 -18.85 -19.50 -20.36 -20.73 -21.34 -21.68 -21.03 -20.00 -20.02 -19.97 -20.01 -19.47 -18.16 -17.37 -18.42 -18.04 -18.08 -17.23 -16.91 -17.71 -18.80 -19.10 -18.85 -18.08 -18.48 -18.61 -18.57 -18.25 -18.48 -18.55 -17.86 -17.58 -17.02 -19.26 -19.38 -19.19 -18.93 -18.79 -19.68 -20.16 -19.44 -18.21 -18.13 -18.45 -18.53 -18.12 -18.18 -19.15 -17.98 -18.31 -18.19 -19.07 -19.71 -19.93 -20.49 -21.67 -21.58 -20.41 -20.52 -19.90 -20.19 -19.54 -19.08 -18.65 -19.20 -18.76 -18.09 -17.91 -18.03 -17.80 -19.52 -18.74 -19.21 -18.79 -18.51 -18.72 -17.55 -18.23 -18.00 -18.56 -18.33 -18.58 -17.29 -18.04 -18.73 -18.61 -18.76 -18.92 -18.70 -18.94 -19.02 -19.25 -19.59 -19.33 -18.89 -17.97 -18.43 -18.51 -17.71 -17.52 -17.63 -18.27 -19.63 -19.23 -20.29 -20.76 -21.26 -20.68 -20.92 -20.49 -19.85 -20.52 -19.89 -19.26 -19.04 -18.83 -18.37 -18.13 -18.22 -18.83 -19.13 -18.41 -18.79 -18.94 -18.25 -17.78 -18.12 -16.64 -17.98 -18.19 -17.78 -17.85 -17.77 -18.31 -17.21 -18.40 -18.51 -18.08 -18.88 -18.78 -18.25 -18.87 -18.69 -18.89 -18.73 -19.00 -18.61 -18.59 -18.55 -18.24 -18.19 -19.38 -19.61 -19.73 -19.69 -20.18 -20.73 -20.58 -19.97 -20.39 -20.11 -19.52 -19.52 -18.91 -18.80 -18.22 -18.51 -18.72 -18.40 -18.59 -18.95 -17.59 -17.07 -18.16 -18.19 -17.93 -17.48 -17.14 -17.23 -17.49 -17.65 -18.21 -17.68 -17.98 -17.63 -18.53 -18.44 -18.42 -18.43 -18.37 -18.81 -19.04 -18.34 -17.93 -19.24 -18.30 -18.37 -18.73 -18.76 -18.73 -18.61 -19.26 -20.07 -20.25 -19.76 -20.08 -20.19 -21.00 -20.41 -19.87 -19.71 -19.00 -19.54 -18.81 -18.69 -18.57 -18.90 -18.75 -19.26 -18.35 -18.80 -18.64 -16.98 -17.66 -17.50 -17.43 -17.27 -17.11 -16.50 -16.36 -16.44 -17.29 -17.66 -16.95 -17.55 -17.62 -19.08 -19.03 -18.78 -18.92 -18.86 -17.84 -18.20 -17.95 -19.10 -18.03 -18.30 -18.82 -18.18 -19.55 -18.71 -18.81 -19.98 -20.31 -20.24 -19.80 -19.55 -20.22 -20.69 -20.84 -19.68 -19.68 -18.88 -18.67 -18.10 -18.10 -18.95 -18.52 -19.59 -19.33 -18.82 -17.76 -17.35 -17.55 -17.74 -17.05 -17.18 -16.32 -16.95 -16.71 -17.19 -17.21 -17.98 -16.97 -17.39 -17.63 -18.57 -18.98 -18.80 -19.21 -19.91 -19.03 -18.23 -18.15 -18.35 -18.11 -17.91 -18.59 -18.41 -19.06 -18.41 -19.27 -18.84 -19.76 -19.59 -19.73 -19.23 -19.36 -20.02 -19.81 -20.01 -19.12 -19.33 -18.99 -18.18 -17.72 -18.51 -19.28 -19.19 -19.00 -18.84 -17.88 -17.31 -16.95 -17.75 -17.80 -17.25 -16.62 -16.64 -16.53 -16.77 -17.59 -17.81 -17.49 -18.25 -18.69 -18.79 -18.34 -19.88 -19.26 -20.13 -19.98 -18.52 -18.61 -18.00 -18.12 -18.13 -18.83 -18.24 -17.34 -18.29 -18.18 -17.98 -18.40 -18.52 -19.59 -19.80 -19.94 -19.80 -19.65 -19.81 -19.24 -18.89 -19.24 -18.56 -17.93 -18.62 -19.36 -18.50 -19.71 -18.54 -18.86 -17.67 -17.56 -17.57 -17.62 -17.65 -17.18 -16.89 -17.06 -17.97 -17.91 -18.05 -17.52 -18.10 -18.91 -19.25 -19.09 -19.01 -19.74 -19.81 -20.51 -18.90 -18.62 -18.60 -19.26 -20.07 -18.47 -17.44 -16.70 -16.94 -16.87 -17.74 -17.68 -18.13 -18.06 -18.83 -19.12 -19.41 -19.28 -19.10 -19.28 -19.17 -19.92 -19.65 -19.10 -19.73 -20.05 -18.96 -19.58 -19.14 -18.32 -18.47 -17.02 -16.88 -16.77 -17.11 -17.56 -18.19 -18.43 -18.94 -18.84 -18.10 -16.71 -17.75 -18.90 -19.19 -19.22 -19.21 -19.78 -19.29 -19.97 -19.06 -18.44 -18.56 -18.60 -18.35 -17.18 -16.09 -16.76 -17.54 -17.14 -17.40 -17.42 -18.32 -18.33 -18.43 -18.61 -18.81 -19.25 -18.59 -18.64 -19.66 -19.11 -19.64 -20.09 -21.22 -19.94 -19.37 -20.08 -18.77 -18.04 -17.36 -17.14 -17.79 -17.13 -17.33 -17.77 -18.41 -17.89 -17.74 -19.23 -18.75 -17.06 -17.22 -18.25 -18.84 -19.63 -20.12 -19.89 -19.44 -19.30 -19.49 -19.12 -19.14 -18.60 -18.75 -17.42 -16.34 -16.94 -17.82 -17.82 -17.42 -18.11 -18.29 -17.71 -18.05 -18.26 -18.97 -19.43 -18.68 -18.69 -19.09 -19.42 -19.81 -21.38 -20.69 -18.98 -18.84 -19.98 -19.07 -18.20 -17.39 -17.47 -18.02 -17.82 -17.50 -18.75 -18.09 -17.87 -18.10 -18.78 -19.26 -16.68 -17.09 -18.16 -18.52 -19.03 -19.85 -19.34 -19.52 -18.67 -19.73 -19.22 -19.49 -18.96 -17.93 -17.30 -17.70 -17.00 -17.04 -17.47 -18.17 -17.80 -17.24 -18.00 -18.53 -19.85 -18.80 -19.23 -18.44 -18.49 -18.57 -18.48 -19.60 -20.21 -20.38 -20.48 -20.10 -19.27 -19.80 -18.45 -17.14 -18.25 -17.45 -17.61 -17.92 -18.66 -19.09 -19.19 -18.46 -18.39 -18.34 -20.98 -20.52 -18.87 -19.25 -19.11 -18.86 -18.12 -18.11 -17.85 -17.62 -17.61 -18.08 -18.63 -17.72 -16.98 -16.80 -17.06 -17.47 -17.23 -16.73 -16.84 -16.70 -16.36 -16.17 -16.18 -16.01 -16.01 -16.92 -18.18 -19.52 -19.81 -19.67 -18.86 -18.41 -18.48 -17.53 -17.99 -18.99 -19.09 -18.55 -18.82 -18.60 -18.02 -19.14 -19.42 -19.18 -19.48 -20.31 -20.30 -19.37 -20.89 -19.35 -19.20 -18.54 -18.78 -18.50 -17.87 -18.50 -18.02 -18.23 -18.58 -18.92 -18.14 -17.89 -17.14 -16.94 -16.19 -16.42 -16.29 -15.99 -16.42 -16.80 -17.10 -16.51 -16.28 -15.31 -15.80 -17.28 -17.86 -18.82 -20.58 -19.05 -18.16 -19.03 -18.37 -17.98 -18.23 -18.64 -18.68 -18.95 -18.89 -18.04 -18.10 -18.23 -18.96 -19.24 -19.55 -20.01 -20.58 -20.17 -20.08 -19.64 -19.29 -18.98 -19.03 -18.26 -17.56 -17.17 -17.25 -18.34 -17.78 -17.74 -18.70 -17.01 -17.19 -16.69 -16.54 -15.97 -16.11 -16.93 -16.19 -16.39 -16.31 -15.92 -15.21 -15.63 -16.15 -17.08 -18.17 -18.88 -19.81 -18.93 -18.58 -18.28 -19.10 -19.03 -18.00 -17.78 -18.37 -17.88 -18.36 -17.20 -17.55 -17.92 -17.91 -18.53 -19.27 -19.76 -19.81 -19.00 -20.07 -19.99 -19.32 -18.60 -17.75 -18.64 -18.38 -18.41 -17.64 -18.18 -18.57 -17.62 -17.71 -17.54 -16.99 -17.87 -16.18 -16.94 -16.92 -16.88 -16.55 -17.03 -17.57 -16.65 -16.36 -15.93 -17.28 -17.29 -18.61 -19.14 -20.20 -19.59 -18.97 -18.54 -19.16 -18.97 -18.22 -17.03 -17.62 -17.93 -18.10 -18.55 -16.84 -16.75 -16.73 -18.63 -18.89 -19.08 -18.97 -18.01 -19.65 -20.04 -19.86 -19.75 -20.41 -20.33 -18.61 -18.09 -18.27 -18.86 -18.46 -17.01 -16.54 -16.84 -17.46 -17.67 -17.03 -17.27 -17.78 -17.59 -17.87 -17.24 -17.03 -17.77 -17.18 -17.35 -17.39 -18.02 -18.43 -18.85 -19.03 -19.50 -18.25 -18.06 -18.66 -18.18 -17.20 -17.16 -16.75 -17.93 -18.11 -17.76 -16.49 -16.76 -17.53 -18.91 -19.06 -18.78 -18.54 -18.97 -19.46 -20.14 -19.91 -20.11 -21.09 -20.67 -19.92 -18.88 -18.41 -19.04 -19.47 -18.41 -17.53 -16.55 -17.10 -17.52 -17.53 -17.83 -17.62 -17.61 -18.21 -17.65 -17.48 -17.17 -17.83 -17.85 -18.38 -18.38 -18.16 -18.34 -19.01 -19.21 -18.16 -18.19 -17.67 -17.83 -17.97 -17.81 -17.05 -17.30 -18.01 -17.52 -16.58 -16.84 -17.00 -17.54 -19.23 -18.36 -18.17 -18.62 -19.24 -18.83 -19.56 -20.23 -20.73 -20.85 -20.52 -19.53 -19.06 -18.88 -19.32 -19.00 -19.11 -17.13 -16.42 -17.95 -17.89 -17.95 -18.40 -17.92 -18.31 -17.85 -17.62 -17.28 -17.20 -17.99 -19.49 -18.14 -18.56 -18.20 -18.95 -19.20 -18.60 -17.87 -18.22 -17.74 -17.42 -17.35 -17.40 -17.10 -18.01 -17.28 -17.73 -17.83 -17.63 -17.68 -18.25 -18.21 -17.29 -18.17 -18.25 -18.43 -19.64 -19.58 -20.77 -20.18 -20.57 -20.20 -19.66 -18.72 -19.16 -18.09 -18.38 -16.67 -16.78 -17.75 -18.31 -18.15 -18.86 -18.04 -17.95 -18.09 -17.98 -17.37 -18.36 -18.38 -19.18 -18.40 -18.35 -19.20 -19.91 -19.12 -19.29 -18.34 -18.12 -18.64 -17.70 -18.00 -17.32 -17.33 -17.84 -17.87 -17.41 -17.78 -17.86 -17.85 -18.15 -17.03 -16.44 -18.05 -18.28 -17.98 -18.34 -20.03 -19.87 -20.71 -20.40 -20.04 -19.06 -18.65 -18.72 -17.91 -18.07 -17.09 -17.05 -17.92 -18.09 -18.35 -18.58 -17.56 -16.97 -17.53 -17.03 -17.70 -17.88 -19.07 -19.43 -19.13 -20.04 -19.41 -19.26 -19.58 -18.73 -18.62 -18.04 -18.84 -17.70 -18.38 -17.75 -17.87 -18.29 -17.46 -16.63 -17.39 -17.50 -17.81 -17.64 -17.48 -17.35 -18.13 -18.33 -18.39 -18.67 -19.16 -19.31 -18.71 -18.81 -19.75 -18.99 -18.48 -18.44 -18.03 -17.20 -17.68 -17.04 -17.84 -18.35 -18.46 -18.20 -17.84 -18.12 -18.01 -17.28 -17.43 -18.07 -19.22 -19.86 -19.70 -19.70 -19.45 -18.84 -18.97 -18.62 -18.15 -17.89 -18.35 -17.67 -17.12 -17.98 -17.79 -17.35 -17.29 -16.02 -16.58 -16.44 -17.58 -17.65 -17.40 -17.57 -17.98 -18.80 -18.78 -18.85 -18.45 -18.49 -18.36 -17.42 -17.81 -18.73 -18.74 -17.82 -18.21 -17.64 -17.68 -17.44 -17.52 -17.39 -17.38 -17.64 -18.12 -17.54 -17.09 -17.24 -18.01 -18.84 -19.72 -19.43 -19.43 -19.28 -18.61 -18.62 -17.97 -18.09 -17.85 -17.38 -17.98 -16.72 -16.94 -17.63 -17.97 -17.40 -16.74 -16.15 -16.59 -16.41 -16.49 -16.35 -16.54 -17.30 -17.05 -19.00 -18.46 -18.43 -18.76 -18.46 -18.07 -17.78 -17.91 -18.46 -18.54 -17.63 -18.10 -18.09 -17.40 -18.43 -17.49 -17.63 -17.75 -17.60 -17.04 -17.48 -16.55 -16.94 -17.30 -18.85 -19.26 -19.20 -18.53 -19.05 -18.72 -18.05 -17.90 -17.08 -17.51 -17.46 -17.52 -17.20 -16.87 -17.44 -17.13 -17.56 -16.59 -16.19 -16.60 -15.93 -16.63 -16.42 -15.92 -16.52 -17.14 -18.80 -18.42 -18.54 -18.88 -18.62 -18.49 -17.63 -18.60 -18.63 -17.58 -18.49 -18.59 -18.16 -18.25 -18.13 -17.97 -17.79 -17.50 -16.64 -15.93 -16.97 -16.31 -17.40 -17.40 -17.40 -19.24 -19.24 -18.45 -18.31 -18.69 -18.00 -17.73 -17.30 -18.35 -16.96 -17.92 -17.28 -16.34 -17.08 -16.54 -16.17 -15.92 -16.16 -16.19 -15.63 -16.50 -16.48 -16.07 -16.33 -16.85 -19.07 -18.22 -18.60 -19.59 -19.00 -18.11 -17.60 -17.75 -18.12 -17.51 -18.36 -17.77 -17.50 -18.31 -19.14 -19.16 -18.24 -17.14 -16.48 -16.65 -16.11 -16.62 -17.30 -17.56 -17.79 -18.78 -19.22 -19.13 -19.06 -18.90 -18.18 -19.16 -17.88 -17.84 -17.06 -18.15 -17.29 -16.67 -17.43 -16.87 -16.63 -16.20 -16.60 -15.90 -17.30 -16.33 -16.36 -16.86 -16.61 -16.46 -18.31 -18.56 -18.72 -18.98 -18.13 -18.13 -17.20 -17.99 -17.94 -17.33 -17.20 -17.76 -17.70 -18.49 -19.01 -18.65 -17.93 -16.94 -16.79 -16.65 -16.32 -17.00 -17.33 -17.53 -18.24 -18.86 -18.77 -20.23 -19.66 -19.24 -18.69 -18.81 -18.25 -17.69 -18.16 -16.73 -17.50 -17.45 -17.69 -16.92 -15.93 -16.05 -15.87 -15.97 -16.69 -17.54 -16.33 -16.71 -16.62 -16.01 -19.47 -19.00 -20.03 -19.15 -19.33 -18.52 -18.49 -18.73 -17.75 -17.93 -17.96 -17.82 -18.22 -18.07 -18.47 -18.36 -18.01 -16.71 -16.65 -17.03 -17.44 -17.86 -18.31 -17.89 -18.30 -19.47 -19.18 -20.19 -20.18 -18.26 -18.97 -19.18 -18.75 -18.45 -18.79 -17.42 -17.04 -17.13 -17.38 -16.27 -16.13 -16.55 -16.25 -16.60 -17.28 -17.47 -17.82 -17.16 -16.50 -15.73 -19.58 -20.06 -20.31 -19.35 -20.02 -18.70 -18.37 -19.06 -18.96 -18.75 -18.35 -18.07 -19.15 -18.41 -18.28 -18.59 -18.48 -17.94 -18.39 -18.37 -18.51 -18.86 -18.28 -17.89 -18.58 -19.25 -19.33 -19.88 -20.37 -19.70 -19.20 -18.93 -18.91 -18.96 -18.83 -18.02 -17.44 -17.53 -17.55 -17.03 -17.44 -17.00 -17.07 -17.99 -17.74 -17.99 -17.84 -17.40 -16.73 -16.69 -20.09 -20.40 -21.11 -20.74 -19.98 -18.42 -18.56 -19.05 -18.61 -18.28 -18.32 -18.55 -18.86 -18.06 -18.72 -18.92 -18.69 -18.83 -18.32 -18.59 -18.90 -20.12 -19.48 -18.69 -18.87 -19.20 -19.56 -19.53 -20.32 -20.61 -19.61 -18.68 -17.90 -18.70 -18.91 -18.41 -18.01 -18.05 -18.34 -17.65 -18.04 -17.89 -18.15 -19.23 -18.42 -18.10 -17.91 -17.28 -17.17 -17.08 -20.18 -20.80 -21.04 -21.03 -19.43 -19.17 -18.71 -19.18 -19.43 -19.37 -19.83 -19.10 -18.94 -18.10 -19.18 -19.54 -18.39 -18.97 -18.96 -18.28 -19.77 -20.28 -19.86 -19.38 -18.37 -19.28 -18.82 -19.56 -19.68 -19.18 -19.06 -18.56 -18.96 -19.49 -18.21 -18.54 -17.76 -18.12 -18.56 -18.05 -18.56 -18.03 -17.70 -18.68 -18.30 -17.73 -17.16 -17.92 -17.54 -17.04 -20.32 -20.75 -20.12 -19.33 -18.77 -17.99 -18.01 -18.24 -19.22 -19.57 -19.30 -18.14 -18.11 -18.50 -19.64 -18.93 -18.89 -18.69 -19.12 -18.44 -19.35 -20.32 -20.43 -19.73 -19.27 -18.77 -19.33 -19.64 -20.58 -20.03 -19.94 -18.38 -18.62 -19.31 -18.97 -18.60 -17.93 -18.40 -18.77 -18.91 -19.27 -18.72 -18.57 -18.67 -18.26 -18.04 -18.23 -17.52 -17.18 -17.47 -20.41 -20.50 -19.79 -18.71 -18.77 -18.07 -18.14 -18.25 -18.42 -18.64 -19.50 -19.08 -17.81 -18.60 -18.58 -18.88 -19.35 -19.81 -19.38 -19.72 -20.30 -20.71 -20.40 -19.72 -19.63 -18.91 -18.93 -19.73 -20.00 -20.38 -19.62 -18.45 -18.02 -18.66 -18.85 -18.28 -18.16 -17.53 -17.41 -18.51 -19.38 -18.74 -19.70 -20.46 -19.60 -18.48 -18.24 -17.83 -17.45 -17.82 -19.96 -20.06 -19.43 -19.41 -19.19 -19.13 -18.65 -18.96 -18.51 -18.48 -19.07 -19.26 -18.46 -18.11 -18.01 -18.04 -19.69 -19.69 -19.81 -20.41 -21.02 -20.30 -20.34 -20.12 -19.32 -19.56 -19.52 -19.32 -19.48 -19.41 -18.56 -18.97 -18.65 -17.64 -18.14 -18.12 -18.52 -17.47 -18.14 -18.85 -19.54 -20.40 -20.23 -20.05 -19.62 -18.72 -17.79 -17.40 -17.96 -17.94 -20.02 -20.48 -19.82 -19.16 -19.17 -18.67 -18.06 -18.73 -18.66 -18.73 -17.93 -18.23 -17.69 -18.15 -17.81 -18.29 -18.71 -19.65 -20.31 -20.72 -20.98 -20.43 -20.83 -20.08 -20.02 -19.74 -19.34 -18.57 -19.49 -18.89 -18.55 -18.73 -18.74 -18.44 -18.01 -17.76 -17.34 -17.59 -18.76 -19.47 -19.38 -19.64 -20.08 -19.69 -19.18 -18.70 -18.17 -17.86 -17.28 -18.07 -19.26 -20.09 -19.99 -18.81 -19.23 -19.48 -18.93 -18.92 -18.96 -18.12 -18.03 -18.91 -19.31 -18.54 -18.23 -18.54 -19.00 -19.22 -18.95 -20.77 -20.86 -20.66 -21.17 -20.60 -20.82 -19.79 -19.12 -19.22 -19.47 -19.48 -18.75 -19.63 -19.34 -18.12 -18.04 -17.91 -17.50 -18.55 -19.49 -18.95 -18.95 -19.42 -19.45 -20.86 -19.88 -19.28 -18.52 -17.84 -17.29 -17.89 -18.84 -18.93 -18.89 -19.40 -19.28 -19.79 -19.51 -18.39 -18.64 -18.67 -18.33 -19.27 -19.22 -18.28 -18.68 -18.42 -18.62 -18.75 -18.98 -20.25 -21.09 -20.29 -20.83 -20.72 -20.95 -21.09 -20.28 -19.86 -20.37 -20.25 -19.79 -19.09 -18.95 -18.53 -18.10 -17.90 -18.03 -18.90 -18.54 -19.86 -19.02 -19.11 -18.61 -18.87 -19.19 -18.93 -18.86 -18.73 -18.56 -18.16 -18.44 -18.08 -19.03 -18.92 -19.17 -18.79 -19.13 -18.48 -18.31 -18.42 -19.17 -19.05 -19.62 -18.29 -18.10 -17.40 -18.40 -18.00 -18.85 -19.61 -20.45 -19.81 -20.76 -20.69 -20.83 -20.90 -19.53 -20.10 -19.86 -19.56 -19.75 -18.65 -18.97 -19.48 -19.05 -18.34 -18.76 -18.37 -18.74 -18.48 -18.76 -19.01 -18.65 -18.81 -17.89 -18.33 -18.70 -18.65 -18.02 -18.33 -17.89 -17.67 -18.50 -18.60 -19.27 -18.78 -18.66 -18.19 -17.82 -18.15 -18.45 -19.07 -18.91 -18.14 -18.39 -18.44 -18.72 -18.84 -18.90 -18.79 -19.36 -19.04 -19.18 -20.29 -19.91 -19.57 -19.44 -19.28 -19.36 -19.87 -19.74 -18.92 -18.37 -19.12 -18.68 -18.43 -18.73 -19.15 -18.55 -18.71 -19.29 -18.88 -18.31 -18.79 -18.01 -17.50 -17.84 -18.40 -18.83 -18.07 -17.65 -17.72 -18.53 -18.83 -18.58 -19.15 -18.79 -18.60 -19.08 -18.66 -18.54 -19.76 -18.44 -18.21 -18.82 -19.58 -19.35 -19.40 -19.76 -19.56 -20.04 -19.75 -19.54 -20.20 -20.01 -20.04 -19.24 -19.57 -19.06 -18.80 -19.20 -18.92 -19.06 -18.96 -19.10 -18.86 -19.05 -18.69 -18.89 -18.09 -17.92 -18.32 -18.76 -17.21 -17.57 -17.75 -17.70 -17.28 -18.10 -18.17 -17.16 -17.91 -18.09 -18.74 -19.23 -18.97 -18.18 -18.55 -18.80 -17.94 -18.56 -18.21 -17.73 -17.95 -18.80 -19.52 -19.45 -18.97 -19.94 -19.94 -20.91 -20.54 -20.20 -18.89 -19.61 -19.38 -19.61 -20.43 -20.64 -19.30 -19.31 -17.82 -18.60 -18.91 -18.79 -18.86 -18.82 -18.25 -17.77 -17.97 -17.95 -17.42 -17.88 -17.24 -17.46 -18.00 -17.31 -18.17 -18.27 -17.87 -17.31 -17.57 -18.10 -18.73 -19.15 -19.67 -19.32 -19.31 -18.87 -18.03 -18.17 -18.58 -18.11 -18.51 -18.77 -18.76 -19.02 -19.16 -20.08 -20.01 -20.11 -20.14 -19.95 -19.42 -19.63 -19.91 -19.20 -20.27 -19.86 -19.59 -18.72 -18.04 -18.48 -18.08 -19.36 -19.19 -19.80 -19.15 -17.48 -17.94 -17.47 -17.12 -16.62 -16.82 -17.08 -18.05 -17.01 -17.88 -17.66 -17.80 -17.77 -18.01 -18.37 -18.89 -18.38 -19.51 -18.94 -19.32 -19.40 -18.53 -18.96 -18.26 -17.90 -18.56 -18.38 -18.56 -18.29 -17.96 -18.76 -18.87 -18.42 -18.98 -18.91 -19.16 -19.18 -19.69 -20.00 -19.45 -19.74 -19.21 -18.66 -18.60 -18.99 -18.86 -19.42 -18.81 -18.30 -18.43 -17.63 -16.96 -16.61 -16.82 -17.17 -17.06 -17.54 -17.53 -17.53 -17.86 -18.53 -17.81 -18.04 -18.33 -18.33 -18.52 -19.51 -19.51 -19.15 -19.77 -19.92 -19.60 -19.01 -18.86 -19.67 -19.38 -18.39 -18.06 -17.56 -17.53 -17.54 -18.78 -17.36 -18.40 -18.36 -18.67 -18.28 -19.68 -19.85 -18.85 -18.62 -19.26 -19.45 -19.13 -19.16 -20.01 -19.13 -18.70 -19.00 -18.70 -17.10 -16.80 -16.63 -16.96 -17.12 -17.13 -16.88 -18.07 -18.30 -17.22 -18.57 -18.45 -16.84 -18.33 -18.92 -18.66 -19.26 -19.81 -20.08 -20.56 -21.14 -20.20 -19.11 -19.33 -19.93 -19.32 -17.47 -16.55 -17.12 -17.21 -17.80 -18.18 -18.01 -18.70 -18.12 -17.82 -18.27 -17.84 -18.70 -17.84 -18.74 -19.19 -19.19 -19.16 -20.22 -21.03 -19.26 -19.12 -19.97 -18.85 -17.92 -17.13 -17.16 -17.04 -17.13 -17.10 -17.90 -18.44 -18.43 -18.14 -19.02 -18.65 -17.20 -17.71 -17.63 -17.88 -19.04 -19.74 -20.77 -19.84 -20.22 -19.91 -20.11 -19.61 -19.42 -18.13 -17.71 -16.95 -16.71 -17.35 -16.63 -17.97 -17.44 -17.47 -17.96 -17.92 -18.15 -18.18 -18.44 -17.93 -17.83 -18.70 -19.00 -19.57 -21.35 -20.04 -19.67 -19.22 -20.15 -18.83 -18.19 -17.50 -17.86 -17.52 -17.35 -17.73 -17.83 -18.14 -17.76 -18.09 -18.18 -17.90 -17.29 -17.66 -17.43 -18.19 -19.06 -20.08 -20.15 -19.74 -19.72 -19.91 -19.85 -19.52 -19.09 -17.35 -17.89 -17.52 -17.74 -18.06 -17.94 -17.59 -17.85 -17.19 -18.73 -18.42 -18.91 -18.34 -17.98 -17.88 -17.55 -18.95 -18.73 -20.15 -20.47 -19.73 -19.85 -19.38 -18.65 -18.09 -18.22 -17.58 -17.99 -18.36 -17.79 -18.27 -18.93 -18.98 -18.02 -17.76 -18.23 -18.56 -19.96 -19.73 -19.64 -19.74 -19.07 -19.16 -18.30 -18.48 -17.97 -18.32 -17.14 -17.39 -17.98 -17.12 -17.04 -16.86 -16.26 -16.89 -17.00 -17.01 -16.40 -16.87 -16.92 -17.44 -16.63 -16.30 -16.88 -18.08 -18.72 -19.20 -19.25 -19.87 -18.96 -18.84 -18.52 -17.13 -17.95 -18.45 -18.14 -18.55 -19.20 -18.61 -19.18 -19.65 -19.12 -19.61 -20.39 -20.22 -20.14 -18.94 -19.30 -18.98 -19.05 -19.47 -18.86 -17.63 -17.37 -17.74 -17.53 -18.41 -17.84 -18.60 -18.60 -17.32 -17.09 -16.27 -15.94 -16.44 -16.44 -16.02 -15.93 -16.12 -16.70 -16.53 -16.21 -16.45 -16.73 -17.80 -18.59 -19.29 -19.99 -18.71 -17.85 -18.82 -18.42 -17.83 -17.25 -17.62 -17.95 -18.00 -18.33 -17.65 -18.49 -19.26 -18.01 -19.25 -20.23 -20.14 -20.08 -20.05 -18.20 -18.47 -18.27 -18.40 -18.33 -17.85 -16.61 -17.98 -17.10 -17.64 -18.05 -17.07 -17.57 -17.80 -17.85 -16.28 -15.82 -17.23 -16.61 -16.60 -16.75 -16.41 -16.36 -15.51 -16.00 -16.15 -16.77 -17.41 -17.27 -18.27 -19.57 -18.84 -17.94 -18.12 -18.06 -18.56 -18.04 -16.89 -17.62 -17.93 -18.20 -17.08 -17.48 -17.54 -18.05 -18.67 -19.82 -20.86 -20.35 -19.44 -18.45 -19.07 -18.21 -18.67 -17.71 -17.78 -18.22 -18.26 -17.55 -17.92 -17.97 -17.65 -16.78 -17.81 -17.64 -16.85 -17.25 -17.30 -17.00 -17.49 -16.51 -16.72 -16.74 -15.73 -15.30 -15.96 -16.41 -16.91 -17.19 -18.40 -19.78 -18.97 -18.19 -18.63 -19.58 -18.61 -17.20 -16.46 -17.06 -17.91 -18.28 -17.54 -16.67 -16.81 -17.03 -18.80 -19.10 -19.42 -18.85 -17.98 -19.81 -19.09 -19.25 -19.16 -18.43 -18.61 -17.87 -18.19 -17.86 -17.34 -17.85 -18.00 -16.83 -16.89 -17.07 -16.65 -16.39 -17.17 -18.00 -17.37 -17.26 -17.78 -16.81 -16.35 -15.95 -16.14 -17.49 -17.37 -17.91 -18.24 -18.65 -18.94 -18.65 -18.07 -18.03 -18.54 -17.37 -16.94 -16.25 -18.25 -17.75 -17.75 -17.07 -16.29 -17.04 -18.10 -19.07 -18.72 -18.63 -19.03 -19.04 -18.73 -18.51 -19.52 -19.90 -19.19 -18.58 -18.40 -17.56 -18.78 -18.99 -18.47 -17.81 -18.13 -17.49 -17.26 -16.89 -17.63 -17.85 -17.38 -18.53 -17.91 -17.77 -16.93 -16.98 -17.02 -17.88 -18.16 -18.56 -18.77 -19.04 -18.72 -18.73 -18.25 -17.63 -17.37 -17.95 -17.10 -17.21 -17.80 -17.73 -17.12 -16.29 -16.74 -17.67 -18.55 -19.36 -18.70 -19.00 -19.04 -18.36 -18.49 -18.92 -18.89 -19.00 -19.38 -19.19 -19.07 -18.04 -19.45 -19.53 -18.34 -18.76 -17.65 -17.74 -17.79 -17.48 -17.86 -18.24 -17.82 -18.33 -17.93 -17.33 -16.62 -16.69 -17.67 -19.02 -17.70 -18.66 -18.84 -18.86 -19.05 -17.97 -18.41 -18.62 -17.58 -17.47 -16.92 -16.72 -17.71 -17.93 -17.35 -17.01 -17.92 -17.63 -17.37 -18.54 -17.96 -18.29 -18.66 -17.91 -18.26 -18.19 -17.84 -18.58 -20.06 -20.09 -19.03 -18.43 -18.15 -18.85 -18.51 -18.54 -18.21 -17.64 -17.59 -18.07 -18.54 -18.78 -17.99 -18.61 -18.33 -17.66 -16.83 -17.73 -18.28 -18.90 -18.55 -18.02 -18.97 -19.41 -19.64 -19.05 -18.54 -18.47 -18.75 -18.44 -17.12 -16.73 -17.18 -17.71 -17.23 -17.18 -18.11 -17.74 -18.42 -19.04 -18.12 -17.86 -18.21 -18.34 -17.88 -18.12 -17.85 -18.63 -18.52 -19.08 -18.79 -17.90 -17.66 -18.17 -18.17 -18.05 -17.22 -17.57 -18.12 -18.49 -18.66 -18.91 -18.60 -17.66 -17.66 -17.78 -18.45 -17.68 -18.68 -18.59 -18.77 -18.52 -18.82 -19.00 -19.81 -18.58 -18.13 -18.67 -18.61 -18.90 -17.34 -17.80 -17.88 -18.18 -17.57 -17.51 -17.54 -18.23 -18.60 -18.78 -18.51 -17.98 -18.35 -17.97 -17.31 -17.91 -18.29 -18.95 -17.65 -18.61 -19.11 -18.41 -17.99 -17.92 -18.13 -17.90 -17.06 -18.11 -18.29 -18.21 -19.28 -18.54 -18.71 -17.55 -18.22 -17.05 -18.01 -17.79 -18.87 -19.19 -19.12 -19.71 -19.20 -19.24 -19.12 -18.52 -17.67 -17.97 -18.29 -18.75 -18.14 -17.54 -17.92 -18.04 -17.86 -17.53 -17.35 -17.37 -18.40 -18.16 -17.97 -18.08 -18.53 -16.93 -18.06 -17.98 -18.26 -18.48 -17.09 -17.29 -17.76 -17.80 -17.36 -18.15 -17.81 -17.42 -18.21 -18.31 -18.30 -17.62 -17.80 -18.32 -18.24 -17.93 -17.65 -17.54 -17.30 -18.26 -19.26 -18.88 -18.88 -18.77 -17.98 -18.87 -17.78 -18.35 -17.61 -17.66 -19.03 -17.79 -17.90 -17.78 -18.35 -18.71 -17.44 -17.39 -17.15 -17.19 -16.72 -17.42 -16.79 -17.69 -17.68 -17.98 -18.12 -18.16 -17.67 -17.90 -16.95 -17.67 -17.32 -18.73 -18.69 -18.57 -17.84 -17.72 -18.14 -18.04 -18.08 -17.73 -18.28 -17.69 -17.70 -17.55 -17.36 -16.91 -16.95 -18.15 -19.43 -18.63 -19.18 -18.71 -18.88 -18.05 -17.29 -17.81 -17.74 -18.69 -18.89 -18.54 -17.05 -17.29 -17.76 -17.98 -17.56 -17.64 -16.85 -16.78 -16.96 -17.00 -15.93 -16.91 -16.71 -18.68 -17.97 -17.96 -18.61 -18.07 -17.74 -17.86 -17.66 -19.05 -17.63 -17.68 -18.24 -17.34 -18.94 -19.01 -19.03 -18.83 -17.67 -17.55 -17.01 -17.42 -16.61 -17.34 -17.47 -17.63 -19.58 -19.04 -18.44 -18.64 -18.65 -17.82 -16.99 -17.73 -18.20 -17.80 -17.29 -17.88 -18.12 -18.36 -17.85 -17.98 -17.24 -17.68 -16.96 -17.45 -16.58 -16.76 -16.32 -16.30 -17.45 -18.38 -17.53 -18.23 -18.85 -19.25 -18.13 -17.75 -18.39 -18.31 -17.69 -17.28 -17.68 -17.12 -18.18 -19.55 -19.78 -19.47 -17.78 -17.68 -17.88 -17.29 -17.59 -18.22 -18.21 -18.54 -18.62 -18.78 -19.12 -19.27 -18.55 -18.17 -17.59 -18.04 -18.41 -18.42 -18.67 -17.93 -18.24 -18.87 -18.43 -17.36 -16.71 -16.50 -16.36 -16.91 -16.71 -16.31 -16.64 -17.04 -16.78 -18.30 -19.46 -19.15 -18.47 -19.09 -18.37 -18.05 -17.92 -17.85 -17.28 -16.42 -17.25 -17.09 -18.35 -19.04 -19.10 -17.99 -17.68 -17.37 -17.14 -17.36 -17.82 -18.38 -18.07 -18.96 -18.75 -19.43 -19.26 -19.18 -18.58 -18.44 -18.30 -17.69 -18.31 -18.83 -17.58 -17.97 -18.55 -18.41 -18.30 -17.61 -16.59 -16.67 -16.99 -17.32 -17.11 -17.24 -16.92 -17.19 -16.89 -19.05 -18.93 -19.79 -19.21 -19.06 -19.51 -19.37 -19.14 -18.9